 +-------------------------------------------------+
 |                                                 |
 |      CCC   AA    SSS  TTTTT  EEEEE  PPPP        |
 |     C     A  A  S       T    E      P   P       |
 |     C     AAAA   SS     T    EEE    PPPP        |
 |     C     A  A     S    T    E      P           |
 |      CCC  A  A  SSS     T    EEEEE  P           |
 |                                                 |
 +-------------------------------------------------+
 |                                                 |
 | Welcome to Academic Release CASTEP version 17.21|          
 | Ab Initio Total Energy Program                  |
 |                                                 |
 | Authors:                                        |
 | M. Segall, M. Probert, C. Pickard, P. Hasnip,   |
 | S. Clark, K. Refson, J. R. Yates, M. Payne      |
 |                                                 |
 | Contributors:                                   |
 | P. Lindan, P. Haynes, J. White, V. Milman,      |
 | N. Govind, M. Gibson, P. Tulip, V. Cocula,      |
 | B. Montanari, D. Quigley, M. Glover,            |
 | L. Bernasconi, A. Perlov, M. Plummer,           |
 | E. McNellis, J. Meyer, J. Gale, D. Jochym       |
 | J. Aarons, B. Walker, R. Gillen, D. Jones       |
 | T. Green, I. J. Bush, C. J. Armstrong,          |
 | E. J. Higgins, E. L. Brown, M. S. McFly,        |
 | J. Wilkins, B-C. Shih, P. J. P. Byrne           |
 |                                                 |
 | Copyright (c) 2000 - 2017                       |
 |                                                 |
 |     Distributed under the terms of an           |
 |     Agreement between the United Kingdom        |
 |     Car-Parrinello (UKCP) Consortium,           |
 |     Daresbury Laboratory and Accelrys, Inc.     |
 |                                                 |
 | Please cite                                     |
 |                                                 |
 |     "First principles methods using CASTEP"     |
 |                                                 |
 |         Zeitschrift fuer Kristallographie       |
 |           220(5-6) pp. 567-570 (2005)           |
 |                                                 |
 | S. J. Clark, M. D. Segall, C. J. Pickard,       |
 | P. J. Hasnip, M. J. Probert, K. Refson,         |
 | M. C. Payne                                     |
 |                                                 |
 |       in all publications arising from          |
 |              your use of CASTEP                 |
 |                                                 |
 +-------------------------------------------------+
 
 
 Compiled for linux_x86_64_ifort15 on Tue, 18 Jul 2017 15:38:41 +0100
 from code version 
 056e886bd5a1+ Castep172_branch Mon, 15 May 2017 14:45:35 +0100
 Compiler: Intel Fortran 15.0.3.187; Optimisation: fast
 MATHLIBS: Intel MKL(11.2.3) (LAPACK version 3.5.0)
 FFT Lib : default
 Fundamental constants values: CODATA 2010
 
 Run started: Thu, 19 Apr 2018 14:25:45 +0100
 
 Atomic calculation performed for Fe: 1s2 2s2 2p6 3s2 3p6 3d6 4s2
 
 Converged in 99 iterations to an ae energy of -34563.483 eV
 
   ============================================================                
   | Pseudopotential Report - Date of generation 19-04-2018   |                
   ------------------------------------------------------------                
   | Element: Fe Ionic charge:  8.00 Level of theory: LDA     |                
   | Atomic Solver: Koelling-Harmon                           |                
   |                                                          |                
   |               Reference Electronic Structure             |                
   |         Orbital         Occupation         Energy        |                
   |            3d              6.000           -0.285        |                
   |            4s              2.000           -0.202        |                
   |                                                          |                
   |                 Pseudopotential Definition               |                
   |        Beta     l      e      Rc     scheme   norm       |                
   |          1      0   -0.202   2.399     qc      0         |                
   |          2      0    0.250   2.399     qc      0         |                
   |          3      1    0.000   2.399     qc      0         |                
   |          4      1    0.250   2.399     qc      0         |                
   |          5      2   -0.285   1.997     qc      0         |                
   |          6      2    0.250   1.997     qc      0         |                
   |         loc     3    0.000   2.399     pn      0         |                
   |                                                          |                
   | Augmentation charge Rinner = 1.000                       |                
   | Partial core correction Rc = 1.000                       |                
   ------------------------------------------------------------                
   | "3|2.4|2.4|1.0|8|9|10|40:41:32U2U2(qc=5.5)"              |                
   ------------------------------------------------------------                
   |      Author: Chris J. Pickard, Cambridge University      |                
   ============================================================                
 
 Pseudo atomic calculation performed for Fe 3d6 4s2
 
 Converged in 29 iterations to a total energy of -847.0421 eV
 
 Calculation parallelised over 16 processes.
 Data is distributed by G-vector(8-way) and k-point(2-way)

 ************************************ Title ************************************
 

 ***************************** General Parameters ******************************
  
 output verbosity                               : normal  (1)
 write checkpoint data to                       : Fe.check
 type of calculation                            : band structure
 stress calculation                             : off
 density difference calculation                 : off
 electron localisation func (ELF) calculation   : off
 Hirshfeld analysis                             : off
 unlimited duration calculation
 timing information                             : on
 memory usage estimate                          : on
 write final potential to formatted file        : off
 write final density to formatted file          : off
 write BibTeX reference list                    : on
 write OTFG pseudopotential files               : on
 write electrostatic potential file             : on
 write bands file                               : on
 checkpoint writing                             : both castep_bin and check files
  
 output         length unit                     : A
 output           mass unit                     : amu
 output           time unit                     : ps
 output         charge unit                     : e
 output           spin unit                     : hbar/2
 output         energy unit                     : eV
 output          force unit                     : eV/A
 output       velocity unit                     : A/ps
 output       pressure unit                     : GPa
 output     inv_length unit                     : 1/A
 output      frequency unit                     : cm-1
 output force constant unit                     : eV/A**2
 output         volume unit                     : A**3
 output   IR intensity unit                     : (D/A)**2/amu
 output         dipole unit                     : D
 output         efield unit                     : eV/A/e
 output        entropy unit                     : J/mol/K
  
 wavefunctions paging                           : none
 random number generator seed                   : randomised (142545355)
 data distribution                              : optimal for this architecture
 optimization strategy                          : maximize speed(+++)

 *********************** Exchange-Correlation Parameters ***********************
  
 using functional                               : Local Density Approximation
 relativistic treatment                         : Koelling-Harmon
 DFT+D: Semi-empirical dispersion correction    : off

 ************************* Pseudopotential Parameters **************************
  
 pseudopotential representation                 : reciprocal space
 <beta|phi> representation                      : reciprocal space
 spin-orbit coupling                            : off

 **************************** Basis Set Parameters *****************************
  
 basis set accuracy                             : MEDIUM
 plane wave basis set cut-off                   :   244.9025   eV
 size of standard grid                          :     1.7500
 size of   fine   gmax                          :    14.0305   1/A
 finite basis set correction                    : none

 **************************** Electronic Parameters ****************************
  
 number of  electrons                           :  8.000    
 net charge of system                           :  0.000    
 net spin   of system                           :  1.000    
 number of  up  spins                           :  4.500    
 number of down spins                           :  3.500    
 treating system as spin-polarized
 number of bands                                :          9

 ********************* Electronic Minimization Parameters **********************
  
 Method: Treating system as metallic with density mixing treatment of electrons,
         and number of  SD  steps               :          1
         and number of  CG  steps               :          4
  
 total energy / atom convergence tol.           : 0.1000E-04   eV
 eigen-energy convergence tolerance             : 0.1000E-05   eV
 max force / atom convergence tol.              : ignored
 convergence tolerance window                   :          3   cycles
 max. number of SCF cycles                      :         30
 number of fixed-spin iterations                :         10
 smearing scheme                                : Gaussian
 smearing width                                 : 0.2000       eV
 Fermi energy convergence tolerance             : 0.2721E-13   eV
 periodic dipole correction                     : NONE

 ************************** Density Mixing Parameters **************************
  
 density-mixing scheme                          : Broyden
 max. length of mixing history                  :         20
 charge density mixing amplitude                : 0.8000    
   spin density mixing amplitude                :  2.000    

 *********************** Population Analysis Parameters ************************
  
 Population analysis with cutoff                :  3.000       A

 ************************** Band Structure Parameters **************************
  
 max. number of iterations                      :         60
 max. CG steps in BS calc                       :         25
 number of bands / k-point                      :          6
 band convergence tolerance                     : 0.1000E-05   eV
 write orbitals file                            : on

 *******************************************************************************
  
 
                           -------------------------------
                                      Unit Cell
                           -------------------------------
        Real Lattice(A)                      Reciprocal Lattice(1/A)
  -1.4332000   1.4332000   1.4332000        0.0000000   2.1920127   2.1920127
   1.4332000  -1.4332000   1.4332000        2.1920127  -0.0000000   2.1920127
   1.4332000   1.4332000  -1.4332000        2.1920127   2.1920127  -0.0000000
 
                       Lattice parameters(A)       Cell Angles
                    a =    2.482375          alpha =  109.471221
                    b =    2.482375          beta  =  109.471221
                    c =    2.482375          gamma =  109.471221
 
                       Current cell volume =   11.775528       A**3
                                   density =    4.742462   AMU/A**3
                                           =    7.875044     g/cm^3
 
                           -------------------------------
                                     Cell Contents
                           -------------------------------
                         Total number of ions in cell =    1
                      Total number of species in cell =    1
                        Max number of any one species =    1
 
            xxxxxxxxxxxxxxxxxxxxxxxxxxxxxxxxxxxxxxxxxxxxxxxxxxxxxxxxxxxx
            x  Element    Atom        Fractional coordinates of atoms  x
            x            Number           u          v          w      x
            x----------------------------------------------------------x
            x  Fe           1         0.000000   0.000000   0.000000   x 
            xxxxxxxxxxxxxxxxxxxxxxxxxxxxxxxxxxxxxxxxxxxxxxxxxxxxxxxxxxxx
 
 
                         No user defined ionic velocities
 
                           -------------------------------
                                   Details of Species
                           -------------------------------
 
                               Mass of species in AMU
                                    Fe   55.8450000
 
                          Electric Quadrupole Moment (Barn)
                                    Fe    0.1600000 Isotope 57
 
                          Files used for pseudopotentials:
                                    Fe 3|2.4|2.4|1.0|8|9|10|40:41:32U2U2(qc=5.5)
 
                           -------------------------------
                              k-Points For BZ Sampling
                           -------------------------------
                       MP grid size for SCF calculation is  8  8  8
                            with an offset of   0.000  0.000  0.000
                       Number of kpoints used =            26
 
                           -------------------------------
                               Symmetry and Constraints
                           -------------------------------
 
                      Maximum deviation from symmetry = 0.470004E-15     ANG
 
                      Number of symmetry operations   =          48
                      Number of ionic constraints     =           3
                      Point group of crystal =    32: Oh, m-3m, 4/m -3 2/m
                      Space group of crystal =   229: Im-3m, -I 4 2 3
 
             Set iprint > 1 for details on symmetry rotations/translations
 
                         Centre of mass is constrained
             Set iprint > 1 for details of linear ionic constraints
 
                         Number of cell constraints= 5
                         Cell constraints are:  1 1 1 0 0 0
 
                         External pressure/stress (GPa)
                          0.00000   0.00000   0.00000
                                    0.00000   0.00000
                                              0.00000
  
+---------------- MEMORY AND SCRATCH DISK ESTIMATES PER PROCESS --------------+
|                                                     Memory          Disk    |
| Baseline code, static data and system overhead      225.0 MB         0.0 MB |
| BLAS internal memory storage                          0.0 MB         0.0 MB |
| Model and support data                               15.3 MB         0.0 MB |
| Electronic energy minimisation requirements           0.5 MB         0.0 MB |
| Force calculation requirements                        0.1 MB         0.0 MB |
|                                               ----------------------------- |
| Approx. total storage required per process          240.8 MB         0.0 MB |
|                                                                             |
| Requirements will fluctuate during execution and may exceed these estimates |
+-----------------------------------------------------------------------------+
Calculating total energy with cut-off of  244.902 eV.
------------------------------------------------------------------------ <-- SCF
SCF loop      Energy           Fermi           Energy gain       Timer   <-- SCF
                               energy          per atom          (sec)   <-- SCF
------------------------------------------------------------------------ <-- SCF
Initial  -6.83088688E+002  0.00000000E+000                        11.79  <-- SCF
      1  -8.47188782E+002  6.99455967E+000   1.64100094E+002      12.21  <-- SCF
      2  -8.56447519E+002  5.30559639E+000   9.25873666E+000      12.52  <-- SCF
      3  -8.56600994E+002  5.28498826E+000   1.53475548E-001      12.82  <-- SCF
      4  -8.56746634E+002  3.84630718E+000   1.45639220E-001      13.17  <-- SCF
      5  -8.56585195E+002  4.72772818E+000  -1.61438560E-001      13.52  <-- SCF
      6  -8.56585846E+002  4.68338990E+000   6.50808837E-004      13.87  <-- SCF
      7  -8.56586024E+002  4.69083143E+000   1.78298547E-004      14.21  <-- SCF
      8  -8.56586120E+002  4.69031569E+000   9.55620977E-005      14.47  <-- SCF
      9  -8.56586126E+002  4.68987158E+000   6.44012395E-006      14.71  <-- SCF
     10  -8.56666789E+002  4.68056097E+000   8.06631114E-002      14.93  <-- SCF
     11  -8.56827225E+002  4.73175164E+000   1.60435776E-001      15.27  <-- SCF
     12  -8.56870880E+002  4.78792905E+000   4.36548144E-002      15.62  <-- SCF
     13  -8.56873125E+002  4.68205392E+000   2.24524682E-003      15.96  <-- SCF
     14  -8.56872973E+002  4.72326892E+000  -1.51723281E-004      16.30  <-- SCF
     15  -8.56873270E+002  4.71292854E+000   2.96553382E-004      16.62  <-- SCF
     16  -8.56873301E+002  4.71402094E+000   3.10624088E-005      16.85  <-- SCF
     17  -8.56873304E+002  4.71596333E+000   3.38463100E-006      17.07  <-- SCF
     18  -8.56873306E+002  4.71625419E+000   1.84969511E-006      17.32  <-- SCF
------------------------------------------------------------------------ <-- SCF
 
Integrated Spin Density     =     2.22374     hbar/2                        
Integrated |Spin Density|   =     2.29110     hbar/2                        
 
Final energy, E             =  -856.8549706102     eV
Final free energy (E-TS)    =  -856.8733061779     eV
(energies not corrected for finite basis set)
 
NB est. 0K energy (E-0.5TS)      =  -856.8641383940     eV
 

Writing analysis data to Fe.castep_bin

Writing model to Fe.check
  
+---------------- MEMORY AND SCRATCH DISK ESTIMATES PER PROCESS --------------+
|                                                     Memory          Disk    |
| Baseline code, static data and system overhead      225.0 MB         0.0 MB |
| BLAS internal memory storage                          0.0 MB         0.0 MB |
| Model and support data                               15.8 MB         0.0 MB |
| Band structure calculation requirements               0.5 MB         0.0 MB |
| Force calculation requirements                        0.2 MB         0.0 MB |
|                                               ----------------------------- |
| Approx. total storage required per process          241.3 MB         0.0 MB |
|                                                                             |
| Requirements will fluctuate during execution and may exceed these estimates |
+-----------------------------------------------------------------------------+
  =====================================================================
  +  Fermi energy for spin  up  electrons is:     4.71625 eV          +
  +  Fermi energy for spin down electrons is:     4.71625 eV          +
  +                                                                   +
  +       B A N D   S T R U C T U R E   C A L C U L A T I O N         +
  +      (General k-point calculation - complex wavefunctions)        +
  +                                                                   +
  + Calculation re-parallelised over 16 processes.                    +
  + Data distributed by G-vector(4-way), k-point(4-way)               +
  +                                                                   +
  + ================================================================= +
  +                                                                   +
  +     Band Structure Calculation: Progress report on root process   +
  +                                                                   +
  +   There are   68 BS k-points. Root process contains   17 of them. +
  +                                                                   +
  +   Spin= 1 of  2, K-point=   1 of   17 completed, Time:     0.17s. +
  +   Spin= 1 of  2, K-point=   2 of   17 completed, Time:     0.16s. +
  +   Spin= 1 of  2, K-point=   3 of   17 completed, Time:     0.16s. +
  +   Spin= 1 of  2, K-point=   4 of   17 completed, Time:     0.16s. +
  +   Spin= 1 of  2, K-point=   5 of   17 completed, Time:     0.18s. +
  +   Spin= 1 of  2, K-point=   6 of   17 completed, Time:     0.18s. +
  +   Spin= 1 of  2, K-point=   7 of   17 completed, Time:     0.18s. +
  +   Spin= 1 of  2, K-point=   8 of   17 completed, Time:     0.16s. +
  +   Spin= 1 of  2, K-point=   9 of   17 completed, Time:     0.17s. +
  +   Spin= 1 of  2, K-point=  10 of   17 completed, Time:     0.17s. +
  +   Spin= 1 of  2, K-point=  11 of   17 completed, Time:     0.17s. +
  +   Spin= 1 of  2, K-point=  12 of   17 completed, Time:     0.17s. +
  +   Spin= 1 of  2, K-point=  13 of   17 completed, Time:     0.18s. +
  +   Spin= 1 of  2, K-point=  14 of   17 completed, Time:     0.18s. +
  +   Spin= 1 of  2, K-point=  15 of   17 completed, Time:     0.18s. +
  +   Spin= 1 of  2, K-point=  16 of   17 completed, Time:     0.17s. +
  +   Spin= 1 of  2, K-point=  17 of   17 completed, Time:     0.20s. +
  +   Spin= 2 of  2, K-point=   1 of   17 completed, Time:     0.18s. +
  +   Spin= 2 of  2, K-point=   2 of   17 completed, Time:     0.18s. +
  +   Spin= 2 of  2, K-point=   3 of   17 completed, Time:     0.18s. +
  +   Spin= 2 of  2, K-point=   4 of   17 completed, Time:     0.18s. +
  +   Spin= 2 of  2, K-point=   5 of   17 completed, Time:     0.17s. +
  +   Spin= 2 of  2, K-point=   6 of   17 completed, Time:     0.18s. +
  +   Spin= 2 of  2, K-point=   7 of   17 completed, Time:     0.17s. +
  +   Spin= 2 of  2, K-point=   8 of   17 completed, Time:     0.15s. +
  +   Spin= 2 of  2, K-point=   9 of   17 completed, Time:     0.19s. +
  +   Spin= 2 of  2, K-point=  10 of   17 completed, Time:     0.17s. +
  +   Spin= 2 of  2, K-point=  11 of   17 completed, Time:     0.17s. +
  +   Spin= 2 of  2, K-point=  12 of   17 completed, Time:     0.17s. +
  +   Spin= 2 of  2, K-point=  13 of   17 completed, Time:     0.18s. +
  +   Spin= 2 of  2, K-point=  14 of   17 completed, Time:     0.19s. +
  +   Spin= 2 of  2, K-point=  15 of   17 completed, Time:     0.18s. +
  +   Spin= 2 of  2, K-point=  16 of   17 completed, Time:     0.16s. +
  +   Spin= 2 of  2, K-point=  17 of   17 completed, Time:     0.13s. +
  +   Finished BS calculation on root process (waiting for others).   +
  +                                                                   +
  + ================================================================= +
  +                       Electronic energies                         +
  +                       -------------------                         +
  +                                                                   +
  +   Band number   Energy in eV                                      +
  + ================================================================= +
  +                                                                   +
  + ----------------------------------------------------------------- +
  +  Spin=1 kpt=    1 ( -0.375000 -0.458333  0.291667) kpt-group=  1  +
  + ----------------------------------------------------------------- +
  +                                                                   +
  +           1        0.619943                                       +
  +           2        0.719658                                       +
  +           3        3.369695                                       +
  +           4        4.190050                                       +
  +           5        4.659955                                       +
  +           6       11.769471                                       +
  + ----------------------------------------------------------------- +
  +  Spin=1 kpt=    2 ( -0.291667 -0.458333  0.208333) kpt-group=  1  +
  + ----------------------------------------------------------------- +
  +                                                                   +
  +           1        0.838837                                       +
  +           2        1.313095                                       +
  +           3        2.629951                                       +
  +           4        3.636759                                       +
  +           5        4.729104                                       +
  +           6        9.911071                                       +
  + ----------------------------------------------------------------- +
  +  Spin=1 kpt=    3 ( -0.291667 -0.375000  0.125000) kpt-group=  1  +
  + ----------------------------------------------------------------- +
  +                                                                   +
  +           1        1.030324                                       +
  +           2        1.601157                                       +
  +           3        2.102719                                       +
  +           4        3.733804                                       +
  +           5        4.441637                                       +
  +           6        9.097262                                       +
  + ----------------------------------------------------------------- +
  +  Spin=1 kpt=    4 ( -0.291667 -0.291667  0.125000) kpt-group=  1  +
  + ----------------------------------------------------------------- +
  +                                                                   +
  +           1        1.013059                                       +
  +           2        1.469135                                       +
  +           3        2.441002                                       +
  +           4        3.567233                                       +
  +           5        4.385762                                       +
  +           6        7.010760                                       +
  + ----------------------------------------------------------------- +
  +  Spin=1 kpt=    5 ( -0.041667 -0.458333  0.458333) kpt-group=  1  +
  + ----------------------------------------------------------------- +
  +                                                                   +
  +           1        0.068018                                       +
  +           2        1.548111                                       +
  +           3        3.652158                                       +
  +           4        3.838266                                       +
  +           5        4.922489                                       +
  +           6        5.282378                                       +
  + ----------------------------------------------------------------- +
  +  Spin=1 kpt=    6 ( -0.041667 -0.291667 -0.208333) kpt-group=  1  +
  + ----------------------------------------------------------------- +
  +                                                                   +
  +           1        0.878540                                       +
  +           2        1.570684                                       +
  +           3        2.256728                                       +
  +           4        3.902916                                       +
  +           5        4.119410                                       +
  +           6        7.615117                                       +
  + ----------------------------------------------------------------- +
  +  Spin=1 kpt=    7 ( -0.041667 -0.125000  0.041667) kpt-group=  1  +
  + ----------------------------------------------------------------- +
  +                                                                   +
  +           1       -2.931831                                       +
  +           2        2.516847                                       +
  +           3        2.533402                                       +
  +           4        2.815601                                       +
  +           5        3.633147                                       +
  +           6        3.876556                                       +
  + ----------------------------------------------------------------- +
  +  Spin=1 kpt=    8 ( -0.041667 -0.041667 -0.041667) kpt-group=  1  +
  + ----------------------------------------------------------------- +
  +                                                                   +
  +           1       -3.201311                                       +
  +           2        2.561036                                       +
  +           3        2.561036                                       +
  +           4        2.843025                                       +
  +           5        3.839043                                       +
  +           6        3.839043                                       +
  + ----------------------------------------------------------------- +
  +  Spin=1 kpt=    9 (  0.041667  0.458333  0.041667) kpt-group=  1  +
  + ----------------------------------------------------------------- +
  +                                                                   +
  +           1        0.108364                                       +
  +           2        1.469110                                       +
  +           3        3.814722                                       +
  +           4        4.054373                                       +
  +           5        4.124766                                       +
  +           6        6.107002                                       +
  + ----------------------------------------------------------------- +
  +  Spin=1 kpt=   10 (  0.125000 -0.041667  0.208333) kpt-group=  1  +
  + ----------------------------------------------------------------- +
  +                                                                   +
  +           1       -1.051618                                       +
  +           2        2.104323                                       +
  +           3        2.298924                                       +
  +           4        3.437418                                       +
  +           5        3.786495                                       +
  +           6        4.130019                                       +
  + ----------------------------------------------------------------- +
  +  Spin=1 kpt=   11 (  0.125000  0.125000  0.041667) kpt-group=  1  +
  + ----------------------------------------------------------------- +
  +                                                                   +
  +           1       -1.453988                                       +
  +           2        2.037536                                       +
  +           3        2.089043                                       +
  +           4        3.726247                                       +
  +           5        3.872297                                       +
  +           6        3.920191                                       +
  + ----------------------------------------------------------------- +
  +  Spin=1 kpt=   12 (  0.125000  0.208333 -0.125000) kpt-group=  1  +
  + ----------------------------------------------------------------- +
  +                                                                   +
  +           1       -1.455778                                       +
  +           2        2.411923                                       +
  +           3        2.428949                                       +
  +           4        3.040142                                       +
  +           5        3.299785                                       +
  +           6        4.179340                                       +
  + ----------------------------------------------------------------- +
  +  Spin=1 kpt=   13 (  0.125000  0.375000  0.125000) kpt-group=  1  +
  + ----------------------------------------------------------------- +
  +                                                                   +
  +           1        0.777331                                       +
  +           2        1.543197                                       +
  +           3        2.718212                                       +
  +           4        3.922620                                       +
  +           5        4.072581                                       +
  +           6        8.569343                                       +
  + ----------------------------------------------------------------- +
  +  Spin=1 kpt=   14 (  0.208333  0.208333  0.041667) kpt-group=  1  +
  + ----------------------------------------------------------------- +
  +                                                                   +
  +           1        0.560493                                       +
  +           2        1.633059                                       +
  +           3        1.933511                                       +
  +           4        3.838088                                       +
  +           5        4.018129                                       +
  +           6        5.943757                                       +
  + ----------------------------------------------------------------- +
  +  Spin=1 kpt=   15 (  0.208333  0.291667 -0.291667) kpt-group=  1  +
  + ----------------------------------------------------------------- +
  +                                                                   +
  +           1        0.243612                                       +
  +           2        1.882351                                       +
  +           3        2.736567                                       +
  +           4        3.031573                                       +
  +           5        3.849006                                       +
  +           6        5.058414                                       +
  + ----------------------------------------------------------------- +
  +  Spin=1 kpt=   16 (  0.208333  0.458333 -0.458333) kpt-group=  1  +
  + ----------------------------------------------------------------- +
  +                                                                   +
  +           1        0.689055                                       +
  +           2        1.678922                                       +
  +           3        2.541125                                       +
  +           4        3.376328                                       +
  +           5        4.823415                                       +
  +           6        8.246668                                       +
  + ----------------------------------------------------------------- +
  +  Spin=1 kpt=   17 (  0.375000  0.375000 -0.208333) kpt-group=  1  +
  + ----------------------------------------------------------------- +
  +                                                                   +
  +           1        0.967993                                       +
  +           2        1.063946                                       +
  +           3        2.548692                                       +
  +           4        4.034482                                       +
  +           5        4.472538                                       +
  +           6       10.526905                                       +
  + ----------------------------------------------------------------- +
  +  Spin=2 kpt=    1 ( -0.375000 -0.458333  0.291667) kpt-group=  1  +
  + ----------------------------------------------------------------- +
  +                                                                   +
  +           1        2.207522                                       +
  +           2        2.270801                                       +
  +           3        5.220525                                       +
  +           4        6.194315                                       +
  +           5        6.778984                                       +
  +           6       12.656442                                       +
  + ----------------------------------------------------------------- +
  +  Spin=2 kpt=    2 ( -0.291667 -0.458333  0.208333) kpt-group=  1  +
  + ----------------------------------------------------------------- +
  +                                                                   +
  +           1        2.364087                                       +
  +           2        2.824604                                       +
  +           3        4.394006                                       +
  +           4        5.587766                                       +
  +           5        6.856570                                       +
  +           6       10.959453                                       +
  + ----------------------------------------------------------------- +
  +  Spin=2 kpt=    3 ( -0.291667 -0.375000  0.125000) kpt-group=  1  +
  + ----------------------------------------------------------------- +
  +                                                                   +
  +           1        2.474841                                       +
  +           2        3.089102                                       +
  +           3        3.778904                                       +
  +           4        5.767696                                       +
  +           5        6.545433                                       +
  +           6       10.339297                                       +
  + ----------------------------------------------------------------- +
  +  Spin=2 kpt=    4 ( -0.291667 -0.291667  0.125000) kpt-group=  1  +
  + ----------------------------------------------------------------- +
  +                                                                   +
  +           1        2.105430                                       +
  +           2        3.111649                                       +
  +           3        4.134773                                       +
  +           4        5.567308                                       +
  +           5        6.495993                                       +
  +           6        8.552107                                       +
  + ----------------------------------------------------------------- +
  +  Spin=2 kpt=    5 ( -0.041667 -0.458333  0.458333) kpt-group=  1  +
  + ----------------------------------------------------------------- +
  +                                                                   +
  +           1        1.307894                                       +
  +           2        3.255092                                       +
  +           3        5.012060                                       +
  +           4        5.932607                                       +
  +           5        6.736943                                       +
  +           6        7.081680                                       +
  + ----------------------------------------------------------------- +
  +  Spin=2 kpt=    6 ( -0.041667 -0.291667 -0.208333) kpt-group=  1  +
  + ----------------------------------------------------------------- +
  +                                                                   +
  +           1        2.127687                                       +
  +           2        3.150880                                       +
  +           3        3.596908                                       +
  +           4        6.097609                                       +
  +           5        6.373190                                       +
  +           6        9.135965                                       +
  + ----------------------------------------------------------------- +
  +  Spin=2 kpt=    7 ( -0.041667 -0.125000  0.041667) kpt-group=  1  +
  + ----------------------------------------------------------------- +
  +                                                                   +
  +           1       -2.540839                                       +
  +           2        4.361321                                       +
  +           3        4.365591                                       +
  +           4        4.716140                                       +
  +           5        5.830083                                       +
  +           6        6.139047                                       +
  + ----------------------------------------------------------------- +
  +  Spin=2 kpt=    8 ( -0.041667 -0.041667 -0.041667) kpt-group=  1  +
  + ----------------------------------------------------------------- +
  +                                                                   +
  +           1       -2.813033                                       +
  +           2        4.403890                                       +
  +           3        4.403890                                       +
  +           4        4.733424                                       +
  +           5        6.071925                                       +
  +           6        6.071925                                       +
  + ----------------------------------------------------------------- +
  +  Spin=2 kpt=    9 (  0.041667  0.458333  0.041667) kpt-group=  1  +
  + ----------------------------------------------------------------- +
  +                                                                   +
  +           1        1.380038                                       +
  +           2        3.158516                                       +
  +           3        5.123908                                       +
  +           4        6.004473                                       +
  +           5        6.355718                                       +
  +           6        7.639531                                       +
  + ----------------------------------------------------------------- +
  +  Spin=2 kpt=   10 (  0.125000 -0.041667  0.208333) kpt-group=  1  +
  + ----------------------------------------------------------------- +
  +                                                                   +
  +           1       -0.579659                                       +
  +           2        3.867292                                       +
  +           3        4.027893                                       +
  +           4        5.547064                                       +
  +           5        5.781677                                       +
  +           6        6.371676                                       +
  + ----------------------------------------------------------------- +
  +  Spin=2 kpt=   11 (  0.125000  0.125000  0.041667) kpt-group=  1  +
  + ----------------------------------------------------------------- +
  +                                                                   +
  +           1       -1.022545                                       +
  +           2        3.803775                                       +
  +           3        3.848558                                       +
  +           4        5.833921                                       +
  +           5        5.913984                                       +
  +           6        6.165331                                       +
  + ----------------------------------------------------------------- +
  +  Spin=2 kpt=   12 (  0.125000  0.208333 -0.125000) kpt-group=  1  +
  + ----------------------------------------------------------------- +
  +                                                                   +
  +           1       -1.021943                                       +
  +           2        4.225282                                       +
  +           3        4.245790                                       +
  +           4        5.096490                                       +
  +           5        5.245505                                       +
  +           6        6.443643                                       +
  + ----------------------------------------------------------------- +
  +  Spin=2 kpt=   13 (  0.125000  0.375000  0.125000) kpt-group=  1  +
  + ----------------------------------------------------------------- +
  +                                                                   +
  +           1        2.110217                                       +
  +           2        3.143153                                       +
  +           3        3.972197                                       +
  +           4        6.159549                                       +
  +           5        6.377086                                       +
  +           6        9.837551                                       +
  + ----------------------------------------------------------------- +
  +  Spin=2 kpt=   14 (  0.208333  0.208333  0.041667) kpt-group=  1  +
  + ----------------------------------------------------------------- +
  +                                                                   +
  +           1        1.399939                                       +
  +           2        3.248110                                       +
  +           3        3.470608                                       +
  +           4        6.017310                                       +
  +           5        6.290567                                       +
  +           6        7.753066                                       +
  + ----------------------------------------------------------------- +
  +  Spin=2 kpt=   15 (  0.208333  0.291667 -0.291667) kpt-group=  1  +
  + ----------------------------------------------------------------- +
  +                                                                   +
  +           1        0.941870                                       +
  +           2        3.705353                                       +
  +           3        4.546898                                       +
  +           4        4.901785                                       +
  +           5        5.857947                                       +
  +           6        7.026253                                       +
  + ----------------------------------------------------------------- +
  +  Spin=2 kpt=   16 (  0.208333  0.458333 -0.458333) kpt-group=  1  +
  + ----------------------------------------------------------------- +
  +                                                                   +
  +           1        2.115930                                       +
  +           2        3.172250                                       +
  +           3        4.321811                                       +
  +           4        5.317092                                       +
  +           5        6.970931                                       +
  +           6        9.429138                                       +
  + ----------------------------------------------------------------- +
  +  Spin=2 kpt=   17 (  0.375000  0.375000 -0.208333) kpt-group=  1  +
  + ----------------------------------------------------------------- +
  +                                                                   +
  +           1        2.561161                                       +
  +           2        2.562770                                       +
  +           3        4.276887                                       +
  +           4        6.046850                                       +
  +           5        6.551883                                       +
  +           6       11.609813                                       +
  + ----------------------------------------------------------------- +
  +  Spin=1 kpt=    1 ( -0.375000 -0.375000  0.291667) kpt-group=  2  +
  + ----------------------------------------------------------------- +
  +                                                                   +
  +           1        0.719717                                       +
  +           2        0.751293                                       +
  +           3        3.385823                                       +
  +           4        3.972170                                       +
  +           5        4.552179                                       +
  +           6        9.650117                                       +
  + ----------------------------------------------------------------- +
  +  Spin=1 kpt=    2 ( -0.291667 -0.458333  0.291667) kpt-group=  2  +
  + ----------------------------------------------------------------- +
  +                                                                   +
  +           1        0.701368                                       +
  +           2        0.948492                                       +
  +           3        3.306971                                       +
  +           4        3.605215                                       +
  +           5        4.769284                                       +
  +           6        9.846725                                       +
  + ----------------------------------------------------------------- +
  +  Spin=1 kpt=    3 ( -0.291667 -0.375000  0.291667) kpt-group=  2  +
  + ----------------------------------------------------------------- +
  +                                                                   +
  +           1        0.805632                                       +
  +           2        1.069401                                       +
  +           3        3.322963                                       +
  +           4        3.479651                                       +
  +           5        4.383728                                       +
  +           6        7.621278                                       +
  + ----------------------------------------------------------------- +
  +  Spin=1 kpt=    4 ( -0.291667 -0.291667  0.208333) kpt-group=  2  +
  + ----------------------------------------------------------------- +
  +                                                                   +
  +           1        0.785096                                       +
  +           2        1.438614                                       +
  +           3        2.820363                                       +
  +           4        3.301992                                       +
  +           5        4.182906                                       +
  +           6        6.248935                                       +
  + ----------------------------------------------------------------- +
  +  Spin=1 kpt=    5 ( -0.041667 -0.375000 -0.041667) kpt-group=  2  +
  + ----------------------------------------------------------------- +
  +                                                                   +
  +           1        0.083849                                       +
  +           2        1.526373                                       +
  +           3        3.550010                                       +
  +           4        3.833238                                       +
  +           5        4.014342                                       +
  +           6        5.430398                                       +
  + ----------------------------------------------------------------- +
  +  Spin=1 kpt=    6 ( -0.041667 -0.291667  0.291667) kpt-group=  2  +
  + ----------------------------------------------------------------- +
  +                                                                   +
  +           1       -0.769454                                       +
  +           2        1.890033                                       +
  +           3        2.429996                                       +
  +           4        3.614153                                       +
  +           5        3.930750                                       +
  +           6        4.012374                                       +
  + ----------------------------------------------------------------- +
  +  Spin=1 kpt=    7 ( -0.041667 -0.041667 -0.291667) kpt-group=  2  +
  + ----------------------------------------------------------------- +
  +                                                                   +
  +           1       -0.258813                                       +
  +           2        1.722559                                       +
  +           3        2.576190                                       +
  +           4        3.822198                                       +
  +           5        3.979104                                       +
  +           6        4.565299                                       +
  + ----------------------------------------------------------------- +
  +  Spin=1 kpt=    8 ( -0.041667 -0.041667  0.041667) kpt-group=  2  +
  + ----------------------------------------------------------------- +
  +                                                                   +
  +           1       -3.476433                                       +
  +           2        2.848736                                       +
  +           3        2.848788                                       +
  +           4        2.884935                                       +
  +           5        3.893981                                       +
  +           6        3.982250                                       +
  + ----------------------------------------------------------------- +
  +  Spin=1 kpt=    9 (  0.041667  0.458333  0.375000) kpt-group=  2  +
  + ----------------------------------------------------------------- +
  +                                                                   +
  +           1        0.427775                                       +
  +           2        1.554049                                       +
  +           3        3.088985                                       +
  +           4        3.871278                                       +
  +           5        4.136718                                       +
  +           6        7.098787                                       +
  + ----------------------------------------------------------------- +
  +  Spin=1 kpt=   10 (  0.125000  0.041667  0.208333) kpt-group=  2  +
  + ----------------------------------------------------------------- +
  +                                                                   +
  +           1       -0.319105                                       +
  +           2        1.797186                                       +
  +           3        2.014983                                       +
  +           4        3.738929                                       +
  +           5        4.006098                                       +
  +           6        4.723131                                       +
  + ----------------------------------------------------------------- +
  +  Spin=1 kpt=   11 (  0.125000  0.125000  0.125000) kpt-group=  2  +
  + ----------------------------------------------------------------- +
  +                                                                   +
  +           1       -0.410697                                       +
  +           2        1.763801                                       +
  +           3        1.763801                                       +
  +           4        3.871786                                       +
  +           5        3.871786                                       +
  +           6        4.726981                                       +
  + ----------------------------------------------------------------- +
  +  Spin=1 kpt=   12 (  0.125000  0.291667  0.208333) kpt-group=  2  +
  + ----------------------------------------------------------------- +
  +                                                                   +
  +           1        1.198361                                       +
  +           2        1.574449                                       +
  +           3        2.150943                                       +
  +           4        4.071346                                       +
  +           5        4.131946                                       +
  +           6        9.469391                                       +
  + ----------------------------------------------------------------- +
  +  Spin=1 kpt=   13 (  0.208333  0.208333 -0.208333) kpt-group=  2  +
  + ----------------------------------------------------------------- +
  +                                                                   +
  +           1       -0.641027                                       +
  +           2        2.375163                                       +
  +           3        2.709051                                       +
  +           4        2.709094                                       +
  +           5        3.271015                                       +
  +           6        4.382998                                       +
  + ----------------------------------------------------------------- +
  +  Spin=1 kpt=   14 (  0.208333  0.208333  0.125000) kpt-group=  2  +
  + ----------------------------------------------------------------- +
  +                                                                   +
  +           1        1.260209                                       +
  +           2        1.560024                                       +
  +           3        1.802479                                       +
  +           4        4.055567                                       +
  +           5        4.093489                                       +
  +           6        7.510392                                       +
  + ----------------------------------------------------------------- +
  +  Spin=1 kpt=   15 (  0.208333  0.291667 -0.125000) kpt-group=  2  +
  + ----------------------------------------------------------------- +
  +                                                                   +
  +           1        0.407232                                       +
  +           2        1.822721                                       +
  +           3        2.401422                                       +
  +           4        3.306108                                       +
  +           5        4.180168                                       +
  +           6        5.369056                                       +
  + ----------------------------------------------------------------- +
  +  Spin=1 kpt=   16 (  0.208333  0.458333 -0.125000) kpt-group=  2  +
  + ----------------------------------------------------------------- +
  +                                                                   +
  +           1        0.640027                                       +
  +           2        2.124637                                       +
  +           3        2.175224                                       +
  +           4        3.566256                                       +
  +           5        4.760369                                       +
  +           6        8.195480                                       +
  + ----------------------------------------------------------------- +
  +  Spin=1 kpt=   17 (  0.375000  0.375000 -0.125000) kpt-group=  2  +
  + ----------------------------------------------------------------- +
  +                                                                   +
  +           1        1.436446                                       +
  +           2        1.436831                                       +
  +           3        1.905166                                       +
  +           4        4.160791                                       +
  +           5        4.161606                                       +
  +           6       11.542361                                       +
  + ----------------------------------------------------------------- +
  +  Spin=2 kpt=    1 ( -0.375000 -0.375000  0.291667) kpt-group=  2  +
  + ----------------------------------------------------------------- +
  +                                                                   +
  +           1        2.185983                                       +
  +           2        2.388812                                       +
  +           3        5.248787                                       +
  +           4        5.936920                                       +
  +           5        6.660506                                       +
  +           6       10.670708                                       +
  + ----------------------------------------------------------------- +
  +  Spin=2 kpt=    2 ( -0.291667 -0.458333  0.291667) kpt-group=  2  +
  + ----------------------------------------------------------------- +
  +                                                                   +
  +           1        2.243806                                       +
  +           2        2.493331                                       +
  +           3        5.175886                                       +
  +           4        5.505819                                       +
  +           5        6.910457                                       +
  +           6       10.866018                                       +
  + ----------------------------------------------------------------- +
  +  Spin=2 kpt=    3 ( -0.291667 -0.375000  0.291667) kpt-group=  2  +
  + ----------------------------------------------------------------- +
  +                                                                   +
  +           1        2.087101                                       +
  +           2        2.760602                                       +
  +           3        5.189140                                       +
  +           4        5.370490                                       +
  +           5        6.464982                                       +
  +           6        8.885414                                       +
  + ----------------------------------------------------------------- +
  +  Spin=2 kpt=    4 ( -0.291667 -0.291667  0.208333) kpt-group=  2  +
  + ----------------------------------------------------------------- +
  +                                                                   +
  +           1        1.779434                                       +
  +           2        3.180297                                       +
  +           3        4.631127                                       +
  +           4        5.196962                                       +
  +           5        6.247562                                       +
  +           6        7.855985                                       +
  + ----------------------------------------------------------------- +
  +  Spin=2 kpt=    5 ( -0.041667 -0.375000 -0.041667) kpt-group=  2  +
  + ----------------------------------------------------------------- +
  +                                                                   +
  +           1        1.220725                                       +
  +           2        3.225549                                       +
  +           3        4.579070                                       +
  +           4        5.982933                                       +
  +           5        6.310923                                       +
  +           6        7.260326                                       +
  + ----------------------------------------------------------------- +
  +  Spin=2 kpt=    6 ( -0.041667 -0.291667  0.291667) kpt-group=  2  +
  + ----------------------------------------------------------------- +
  +                                                                   +
  +           1       -0.210391                                       +
  +           2        3.650268                                       +
  +           3        3.999294                                       +
  +           4        5.745144                                       +
  +           5        5.956036                                       +
  +           6        6.274830                                       +
  + ----------------------------------------------------------------- +
  +  Spin=2 kpt=    7 ( -0.041667 -0.041667 -0.291667) kpt-group=  2  +
  + ----------------------------------------------------------------- +
  +                                                                   +
  +           1        0.468898                                       +
  +           2        3.446839                                       +
  +           3        3.952167                                       +
  +           4        5.989945                                       +
  +           5        6.258531                                       +
  +           6        6.557286                                       +
  + ----------------------------------------------------------------- +
  +  Spin=2 kpt=    8 ( -0.041667 -0.041667  0.041667) kpt-group=  2  +
  + ----------------------------------------------------------------- +
  +                                                                   +
  +           1       -3.089878                                       +
  +           2        4.688711                                       +
  +           3        4.690960                                       +
  +           4        4.734438                                       +
  +           5        6.119760                                       +
  +           6        6.227562                                       +
  + ----------------------------------------------------------------- +
  +  Spin=2 kpt=    9 (  0.041667  0.458333  0.375000) kpt-group=  2  +
  + ----------------------------------------------------------------- +
  +                                                                   +
  +           1        1.705295                                       +
  +           2        3.209699                                       +
  +           3        4.305481                                       +
  +           4        6.056119                                       +
  +           5        6.394734                                       +
  +           6        8.541601                                       +
  + ----------------------------------------------------------------- +
  +  Spin=2 kpt=   10 (  0.125000  0.041667  0.208333) kpt-group=  2  +
  + ----------------------------------------------------------------- +
  +                                                                   +
  +           1        0.246886                                       +
  +           2        3.504066                                       +
  +           3        3.648080                                       +
  +           4        5.919479                                       +
  +           5        6.267845                                       +
  +           6        6.673887                                       +
  + ----------------------------------------------------------------- +
  +  Spin=2 kpt=   11 (  0.125000  0.125000  0.125000) kpt-group=  2  +
  + ----------------------------------------------------------------- +
  +                                                                   +
  +           1        0.091324                                       +
  +           2        3.469246                                       +
  +           3        3.469246                                       +
  +           4        6.109635                                       +
  +           5        6.109635                                       +
  +           6        6.671552                                       +
  + ----------------------------------------------------------------- +
  +  Spin=2 kpt=   12 (  0.125000  0.291667  0.208333) kpt-group=  2  +
  + ----------------------------------------------------------------- +
  +                                                                   +
  +           1        2.582082                                       +
  +           2        3.100685                                       +
  +           3        3.464893                                       +
  +           4        6.336130                                       +
  +           5        6.416424                                       +
  +           6       10.765669                                       +
  + ----------------------------------------------------------------- +
  +  Spin=2 kpt=   13 (  0.208333  0.208333 -0.208333) kpt-group=  2  +
  + ----------------------------------------------------------------- +
  +                                                                   +
  +           1       -0.136602                                       +
  +           2        4.338900                                       +
  +           3        4.530763                                       +
  +           4        4.532915                                       +
  +           5        5.235311                                       +
  +           6        6.578721                                       +
  + ----------------------------------------------------------------- +
  +  Spin=2 kpt=   14 (  0.208333  0.208333  0.125000) kpt-group=  2  +
  + ----------------------------------------------------------------- +
  +                                                                   +
  +           1        2.325262                                       +
  +           2        3.108215                                       +
  +           3        3.255248                                       +
  +           4        6.302093                                       +
  +           5        6.378293                                       +
  +           6        9.111626                                       +
  + ----------------------------------------------------------------- +
  +  Spin=2 kpt=   15 (  0.208333  0.291667 -0.125000) kpt-group=  2  +
  + ----------------------------------------------------------------- +
  +                                                                   +
  +           1        1.209341                                       +
  +           2        3.509769                                       +
  +           3        4.135438                                       +
  +           4        5.291726                                       +
  +           5        6.276249                                       +
  +           6        7.238385                                       +
  + ----------------------------------------------------------------- +
  +  Spin=2 kpt=   16 (  0.208333  0.458333 -0.125000) kpt-group=  2  +
  + ----------------------------------------------------------------- +
  +                                                                   +
  +           1        2.029120                                       +
  +           2        3.618575                                       +
  +           3        3.844648                                       +
  +           4        5.593098                                       +
  +           5        6.895900                                       +
  +           6        9.381550                                       +
  + ----------------------------------------------------------------- +
  +  Spin=2 kpt=   17 (  0.375000  0.375000 -0.125000) kpt-group=  2  +
  + ----------------------------------------------------------------- +
  +                                                                   +
  +           1        2.949959                                       +
  +           2        2.953639                                       +
  +           3        3.506055                                       +
  +           4        6.230878                                       +
  +           5        6.235374                                       +
  +           6       12.653747                                       +
  + ----------------------------------------------------------------- +
  +  Spin=1 kpt=    1 ( -0.375000 -0.375000  0.375000) kpt-group=  3  +
  + ----------------------------------------------------------------- +
  +                                                                   +
  +           1        0.578312                                       +
  +           2        0.659793                                       +
  +           3        3.938643                                       +
  +           4        3.938737                                       +
  +           5        4.298654                                       +
  +           6        9.305857                                       +
  + ----------------------------------------------------------------- +
  +  Spin=1 kpt=    2 ( -0.291667 -0.375000 -0.291667) kpt-group=  3  +
  + ----------------------------------------------------------------- +
  +                                                                   +
  +           1        1.085266                                       +
  +           2        1.669741                                       +
  +           3        2.039828                                       +
  +           4        4.096695                                       +
  +           5        4.200743                                       +
  +           6        9.872195                                       +
  + ----------------------------------------------------------------- +
  +  Spin=1 kpt=    3 ( -0.291667 -0.291667 -0.291667) kpt-group=  3  +
  + ----------------------------------------------------------------- +
  +                                                                   +
  +           1        1.327809                                       +
  +           2        1.799244                                       +
  +           3        1.799244                                       +
  +           4        4.077811                                       +
  +           5        4.077811                                       +
  +           6       11.762127                                       +
  + ----------------------------------------------------------------- +
  +  Spin=1 kpt=    4 ( -0.291667 -0.291667  0.291667) kpt-group=  3  +
  + ----------------------------------------------------------------- +
  +                                                                   +
  +           1        0.712603                                       +
  +           2        1.439958                                       +
  +           3        3.210968                                       +
  +           4        3.211031                                       +
  +           5        3.811838                                       +
  +           6        6.052270                                       +
  + ----------------------------------------------------------------- +
  +  Spin=1 kpt=    5 ( -0.041667 -0.375000  0.291667) kpt-group=  3  +
  + ----------------------------------------------------------------- +
  +                                                                   +
  +           1       -0.073221                                       +
  +           2        1.862302                                       +
  +           3        2.381960                                       +
  +           4        3.581387                                       +
  +           5        4.095181                                       +
  +           6        4.722909                                       +
  + ----------------------------------------------------------------- +
  +  Spin=1 kpt=    6 ( -0.041667 -0.208333 -0.375000) kpt-group=  3  +
  + ----------------------------------------------------------------- +
  +                                                                   +
  +           1        0.842935                                       +
  +           2        1.573261                                       +
  +           3        2.458331                                       +
  +           4        3.904776                                       +
  +           5        4.237035                                       +
  +           6        8.954722                                       +
  + ----------------------------------------------------------------- +
  +  Spin=1 kpt=    7 ( -0.041667 -0.041667 -0.208333) kpt-group=  3  +
  + ----------------------------------------------------------------- +
  +                                                                   +
  +           1       -1.270016                                       +
  +           2        2.036619                                       +
  +           3        2.266767                                       +
  +           4        3.702695                                       +
  +           5        3.869269                                       +
  +           6        3.917601                                       +
  + ----------------------------------------------------------------- +
  +  Spin=1 kpt=    8 ( -0.041667  0.208333  0.375000) kpt-group=  3  +
  + ----------------------------------------------------------------- +
  +                                                                   +
  +           1        0.685511                                       +
  +           2        1.707110                                       +
  +           3        2.445117                                       +
  +           4        3.746733                                       +
  +           5        4.418626                                       +
  +           6        7.877546                                       +
  + ----------------------------------------------------------------- +
  +  Spin=1 kpt=    9 (  0.125000 -0.291667  0.291667) kpt-group=  3  +
  + ----------------------------------------------------------------- +
  +                                                                   +
  +           1       -0.367159                                       +
  +           2        2.187782                                       +
  +           3        2.211438                                       +
  +           4        3.324747                                       +
  +           5        3.899051                                       +
  +           6        4.402580                                       +
  + ----------------------------------------------------------------- +
  +  Spin=1 kpt=   10 (  0.125000  0.041667  0.291667) kpt-group=  3  +
  + ----------------------------------------------------------------- +
  +                                                                   +
  +           1        0.357310                                       +
  +           2        1.606240                                       +
  +           3        2.464426                                       +
  +           4        3.817311                                       +
  +           5        4.056598                                       +
  +           6        5.811143                                       +
  + ----------------------------------------------------------------- +
  +  Spin=1 kpt=   11 (  0.125000  0.125000  0.208333) kpt-group=  3  +
[...]
  +           1        0.870925                                       +
  +           2        1.606985                                       +
  +           3        2.396905                                       +
  +           4        3.982468                                       +
  +           5        4.138512                                       +
  +           6        7.442493                                       +
  + ----------------------------------------------------------------- +
  +  Spin=1 kpt=   12 (  0.125000  0.375000 -0.041667) kpt-group=  4  +
  + ----------------------------------------------------------------- +
  +                                                                   +
  +           1        0.253311                                       +
  +           2        1.729642                                       +
  +           3        2.881554                                       +
  +           4        3.711020                                       +
  +           5        4.449651                                       +
  +           6        5.888344                                       +
  + ----------------------------------------------------------------- +
  +  Spin=1 kpt=   13 (  0.208333  0.208333 -0.041667) kpt-group=  4  +
  + ----------------------------------------------------------------- +
  +                                                                   +
  +           1       -0.030717                                       +
  +           2        1.825897                                       +
  +           3        2.247521                                       +
  +           4        3.455533                                       +
  +           5        4.045677                                       +
  +           6        4.835362                                       +
  + ----------------------------------------------------------------- +
  +  Spin=1 kpt=   14 (  0.208333  0.208333  0.291667) kpt-group=  4  +
  + ----------------------------------------------------------------- +
  +                                                                   +
  +           1        1.481424                                       +
  +           2        1.489107                                       +
  +           3        1.856400                                       +
  +           4        4.042107                                       +
  +           5        4.047872                                       +
  +           6       11.460606                                       +
  + ----------------------------------------------------------------- +
  +  Spin=1 kpt=   15 (  0.208333  0.375000 -0.375000) kpt-group=  4  +
  + ----------------------------------------------------------------- +
  +                                                                   +
  +           1        0.714802                                       +
  +           2        1.613880                                       +
  +           3        2.624474                                       +
  +           4        3.326523                                       +
  +           5        4.429285                                       +
  +           6        6.372281                                       +
  + ----------------------------------------------------------------- +
  +  Spin=1 kpt=   16 (  0.375000 -0.458333 -0.458333) kpt-group=  4  +
  + ----------------------------------------------------------------- +
  +                                                                   +
  +           1        0.317275                                       +
  +           2        0.317328                                       +
  +           3        4.134092                                       +
  +           4        4.599953                                       +
  +           5        4.600212                                       +
  +           6       13.537684                                       +
  + ----------------------------------------------------------------- +
  +  Spin=1 kpt=   17 (  0.458333  0.458333 -0.458333) kpt-group=  4  +
  + ----------------------------------------------------------------- +
  +                                                                   +
  +           1        0.171921                                       +
  +           2        0.219152                                       +
  +           3        4.589396                                       +
  +           4        4.590827                                       +
  +           5        4.590943                                       +
  +           6       13.250478                                       +
  + ----------------------------------------------------------------- +
  +  Spin=2 kpt=    1 ( -0.375000  0.458333 -0.208333) kpt-group=  4  +
  + ----------------------------------------------------------------- +
  +                                                                   +
  +           1        1.920289                                       +
  +           2        3.441119                                       +
  +           3        4.005267                                       +
  +           4        5.554520                                       +
  +           5        6.718568                                       +
  +           6        8.409828                                       +
  + ----------------------------------------------------------------- +
  +  Spin=2 kpt=    2 ( -0.291667 -0.375000  0.041667) kpt-group=  4  +
  + ----------------------------------------------------------------- +
  +                                                                   +
  +           1        2.615644                                       +
  +           2        3.216344                                       +
  +           3        3.390387                                       +
  +           4        6.109627                                       +
  +           5        6.368394                                       +
  +           6       11.232835                                       +
  + ----------------------------------------------------------------- +
  +  Spin=2 kpt=    3 ( -0.291667 -0.291667  0.041667) kpt-group=  4  +
  + ----------------------------------------------------------------- +
  +                                                                   +
  +           1        2.394390                                       +
  +           2        3.085447                                       +
  +           3        3.635228                                       +
  +           4        5.911251                                       +
  +           5        6.446062                                       +
  +           6        9.650454                                       +
  + ----------------------------------------------------------------- +
  +  Spin=2 kpt=    4 ( -0.125000  0.458333 -0.458333) kpt-group=  4  +
  + ----------------------------------------------------------------- +
  +                                                                   +
  +           1        1.664646                                       +
  +           2        3.705203                                       +
  +           3        4.054538                                       +
  +           4        5.641103                                       +
  +           5        7.035049                                       +
  +           6        7.997944                                       +
  + ----------------------------------------------------------------- +
  +  Spin=2 kpt=    5 ( -0.041667 -0.375000  0.375000) kpt-group=  4  +
  + ----------------------------------------------------------------- +
  +                                                                   +
  +           1        0.886774                                       +
  +           2        3.389806                                       +
  +           3        4.291442                                       +
  +           4        5.884945                                       +
  +           5        6.407093                                       +
  +           6        6.630240                                       +
  + ----------------------------------------------------------------- +
  +  Spin=2 kpt=    6 ( -0.041667 -0.208333  0.208333) kpt-group=  4  +
  + ----------------------------------------------------------------- +
  +                                                                   +
  +           1       -1.512185                                       +
  +           2        4.093430                                       +
  +           3        4.212957                                       +
  +           4        5.290379                                       +
  +           5        5.707539                                       +
  +           6        6.196255                                       +
  + ----------------------------------------------------------------- +
  +  Spin=2 kpt=    7 ( -0.041667 -0.041667 -0.125000) kpt-group=  4  +
  + ----------------------------------------------------------------- +
  +                                                                   +
  +           1       -2.013454                                       +
  +           2        4.124050                                       +
  +           3        4.174763                                       +
  +           4        5.211893                                       +
  +           5        5.956834                                       +
  +           6        6.100023                                       +
  + ----------------------------------------------------------------- +
  +  Spin=2 kpt=    8 ( -0.041667  0.458333  0.125000) kpt-group=  4  +
  + ----------------------------------------------------------------- +
  +                                                                   +
  +           1        1.581357                                       +
  +           2        3.401102                                       +
  +           3        4.479397                                       +
  +           4        5.857186                                       +
  +           5        6.740621                                       +
  +           6        8.076361                                       +
  + ----------------------------------------------------------------- +
  +  Spin=2 kpt=    9 (  0.125000 -0.125000  0.125000) kpt-group=  4  +
  + ----------------------------------------------------------------- +
  +                                                                   +
  +           1       -2.009620                                       +
  +           2        4.341942                                       +
  +           3        4.344322                                       +
  +           4        4.937846                                       +
  +           5        5.387401                                       +
  +           6        6.349875                                       +
  + ----------------------------------------------------------------- +
  +  Spin=2 kpt=   10 (  0.125000  0.125000 -0.041667) kpt-group=  4  +
  + ----------------------------------------------------------------- +
  +                                                                   +
  +           1       -1.756234                                       +
  +           2        4.176235                                       +
  +           3        4.244430                                       +
  +           4        5.209425                                       +
  +           5        5.639645                                       +
  +           6        6.279079                                       +
  + ----------------------------------------------------------------- +
  +  Spin=2 kpt=   11 (  0.125000  0.125000  0.291667) kpt-group=  4  +
  + ----------------------------------------------------------------- +
  +                                                                   +
  +           1        2.062653                                       +
  +           2        3.214566                                       +
  +           3        3.652582                                       +
  +           4        6.212916                                       +
  +           5        6.429827                                       +
  +           6        9.001018                                       +
  + ----------------------------------------------------------------- +
  +  Spin=2 kpt=   12 (  0.125000  0.375000 -0.041667) kpt-group=  4  +
  + ----------------------------------------------------------------- +
  +                                                                   +
  +           1        1.416018                                       +
  +           2        3.428294                                       +
  +           3        4.185299                                       +
  +           4        5.840720                                       +
  +           5        6.582360                                       +
  +           6        7.569107                                       +
  + ----------------------------------------------------------------- +
  +  Spin=2 kpt=   13 (  0.208333  0.208333 -0.041667) kpt-group=  4  +
  + ----------------------------------------------------------------- +
  +                                                                   +
  +           1        0.603702                                       +
  +           2        3.523810                                       +
  +           3        3.912379                                       +
  +           4        5.549625                                       +
  +           5        6.247369                                       +
  +           6        6.797103                                       +
  + ----------------------------------------------------------------- +
  +  Spin=2 kpt=   14 (  0.208333  0.208333  0.291667) kpt-group=  4  +
  + ----------------------------------------------------------------- +
  +                                                                   +
  +           1        2.912753                                       +
  +           2        2.980038                                       +
  +           3        3.237882                                       +
  +           4        6.342472                                       +
  +           5        6.359206                                       +
  +           6       12.581165                                       +
  + ----------------------------------------------------------------- +
  +  Spin=2 kpt=   15 (  0.208333  0.375000 -0.375000) kpt-group=  4  +
  + ----------------------------------------------------------------- +
  +                                                                   +
  +           1        1.810658                                       +
  +           2        3.253625                                       +
  +           3        4.416768                                       +
  +           4        5.249329                                       +
  +           5        6.515974                                       +
  +           6        7.932540                                       +
  + ----------------------------------------------------------------- +
  +  Spin=2 kpt=   16 (  0.375000 -0.458333 -0.458333) kpt-group=  4  +
  + ----------------------------------------------------------------- +
  +                                                                   +
  +           1        1.898882                                       +
  +           2        1.899353                                       +
  +           3        6.136535                                       +
  +           4        6.710137                                       +
  +           5        6.713057                                       +
  +           6       14.212098                                       +
  + ----------------------------------------------------------------- +
  +  Spin=2 kpt=   17 (  0.458333  0.458333 -0.458333) kpt-group=  4  +
  + ----------------------------------------------------------------- +
  +                                                                   +
  +           1        1.765462                                       +
  +           2        1.790717                                       +
  +           3        6.695716                                       +
  +           4        6.698533                                       +
  +           5        6.728873                                       +
  +           6       13.848463                                       +
  =====================================================================

Writing model to Fe.orbitals
  + Calculation re-parallelised over 16 processes.                    +
  + Data distributed by G-vector(8-way), k-point(2-way)               +
 
 ******************* Unconstrained Forces *******************
 *                                                          *
 *               Cartesian components (eV/A)                *
 * -------------------------------------------------------- *
 *                         x            y            z      *
 *                                                          *
 * Fe              1      0.00000      0.00000      0.00000 *
 *                                                          *
 ************************************************************
 
 ************** Constrained Symmetrised Forces **************
 *                                                          *
 *               Cartesian components (eV/A)                *
 * -------------------------------------------------------- *
 *                         x            y            z      *
 *                                                          *
 * Fe              1      0.00000      0.00000      0.00000 *
 *                                                          *
 ************************************************************
 
 Pseudo atomic calculation performed for Fe 3d6 4s2
 
 Converged in 29 iterations to a total energy of -847.0421 eV
 
Charge spilling parameter for spin component 1 = 0.11%
Charge spilling parameter for spin component 2 = 0.38%
 
     Atomic Populations (Mulliken)
     -----------------------------
Species          Ion     s      p      d      f     Total  Charge (e)  Spin (hbar/2)
==================================================================================
  Fe              1     0.67   0.65   6.68   0.00   8.00     0.00        2.22
==================================================================================
 
                 Bond                   Population        Spin       Length (A)
================================================================================
================================================================================
 

Writing analysis data to Fe.castep_bin

Writing model to Fe.check
 
 A BibTeX formatted list of references used in this run has been written to 
 Fe.bib
 
Initialisation time =      9.88 s
Calculation time    =     16.10 s
Finalisation time   =      0.45 s
Total time          =     26.42 s
Peak Memory Use     = 536796 kB
  
Overall parallel efficiency rating: Terrible (32%)                              
  
Data was distributed by:-
G-vector (8-way); efficiency rating: Poor (35%)                                 
k-point (2-way); efficiency rating: Good (72%)                                  
  
Parallel notes:
1) Calculation only took 26.0 s, so efficiency estimates may be inaccurate.     
