nqpoint: 23
npath: 3      
segment_nqpoint:
- 6
- 11
- 6
reciprocal_lattice:
- [   0.17573761,   0.00000000,   0.00000000 ] # a*
- [   0.00000000,   0.17573761,   0.00000000 ] # b*
- [   0.00000000,   0.00000000,   0.17573761 ] # c*
natom: 8      
lattice:
- [     5.690301476175671,     0.000000000000000,     0.000000000000000 ] # a
- [     0.000000000000000,     5.690301476175671,     0.000000000000000 ] # b
- [     0.000000000000000,     0.000000000000000,     5.690301476175671 ] # c
points:
- symbol: Na # 1
  coordinates: [  0.000000000000000,  0.000000000000000,  0.000000000000000 ]
  mass: 22.989769
- symbol: Na # 2
  coordinates: [  0.000000000000000,  0.500000000000000,  0.500000000000000 ]
  mass: 22.989769
- symbol: Na # 3
  coordinates: [  0.500000000000000,  0.000000000000000,  0.500000000000000 ]
  mass: 22.989769
- symbol: Na # 4
  coordinates: [  0.500000000000000,  0.500000000000000,  0.000000000000000 ]
  mass: 22.989769
- symbol: Cl # 5
  coordinates: [  0.500000000000000,  0.500000000000000,  0.500000000000000 ]
  mass: 35.453000
- symbol: Cl # 6
  coordinates: [  0.500000000000000,  0.000000000000000,  0.000000000000000 ]
  mass: 35.453000
- symbol: Cl # 7
  coordinates: [  0.000000000000000,  0.500000000000000,  0.000000000000000 ]
  mass: 35.453000
- symbol: Cl # 8
  coordinates: [  0.000000000000000,  0.000000000000000,  0.500000000000000 ]
  mass: 35.453000
supercell_matrix:
- [    4,    0,    0 ]
- [    0,    4,    0 ]
- [    0,    0,    4 ]

phonon:
- q-position: [    0.0000000,    0.0000000,    0.0000000 ]
  distance:    0.0000000
  band:
  - # 1
    frequency:   -0.0370089502
    eigenvector:
    - # atom 1
      - [ -0.00851708083241,  0.00000000000000 ]
      - [ -0.31650871393055, -0.00000000000000 ]
      - [  0.00851708083188, -0.00000000000000 ]
    - # atom 2
      - [ -0.00851708083241, -0.00000000000000 ]
      - [ -0.31650871393055, -0.00000000000000 ]
      - [  0.00851708083188, -0.00000000000000 ]
    - # atom 3
      - [ -0.00851708083241, -0.00000000000000 ]
      - [ -0.31650871393055, -0.00000000000000 ]
      - [  0.00851708083188, -0.00000000000000 ]
    - # atom 4
      - [ -0.00851708083241,  0.00000000000000 ]
      - [ -0.31650871393055, -0.00000000000000 ]
      - [  0.00851708083188, -0.00000000000000 ]
    - # atom 5
      - [ -0.01040323959213, -0.00000000000000 ]
      - [ -0.38660147165552, -0.00000000000000 ]
      - [  0.01040323959148, -0.00000000000000 ]
    - # atom 6
      - [ -0.01040323959213, -0.00000000000000 ]
      - [ -0.38660147165552, -0.00000000000000 ]
      - [  0.01040323959148, -0.00000000000000 ]
    - # atom 7
      - [ -0.01040323959213,  0.00000000000000 ]
      - [ -0.38660147165552, -0.00000000000000 ]
      - [  0.01040323959148, -0.00000000000000 ]
    - # atom 8
      - [ -0.01040323959213, -0.00000000000000 ]
      - [ -0.38660147165552, -0.00000000000000 ]
      - [  0.01040323959148, -0.00000000000000 ]
  - # 2
    frequency:   -0.0370089502
    eigenvector:
    - # atom 1
      - [  0.22380545792498,  0.00000000000000 ]
      - [ -0.01204497122464, -0.00000000000000 ]
      - [ -0.22380545792488,  0.00000000000000 ]
    - # atom 2
      - [  0.22380545792497,  0.00000000000000 ]
      - [ -0.01204497122464, -0.00000000000000 ]
      - [ -0.22380545792488,  0.00000000000000 ]
    - # atom 3
      - [  0.22380545792498,  0.00000000000000 ]
      - [ -0.01204497122464, -0.00000000000000 ]
      - [ -0.22380545792488,  0.00000000000000 ]
    - # atom 4
      - [  0.22380545792498,  0.00000000000000 ]
      - [ -0.01204497122464, -0.00000000000000 ]
      - [ -0.22380545792488,  0.00000000000000 ]
    - # atom 5
      - [  0.27336852222438,  0.00000000000000 ]
      - [ -0.01471240252335, -0.00000000000000 ]
      - [ -0.27336852222426,  0.00000000000000 ]
    - # atom 6
      - [  0.27336852222438,  0.00000000000000 ]
      - [ -0.01471240252335, -0.00000000000000 ]
      - [ -0.27336852222426,  0.00000000000000 ]
    - # atom 7
      - [  0.27336852222438,  0.00000000000000 ]
      - [ -0.01471240252335, -0.00000000000000 ]
      - [ -0.27336852222426,  0.00000000000000 ]
    - # atom 8
      - [  0.27336852222438,  0.00000000000000 ]
      - [ -0.01471240252335, -0.00000000000000 ]
      - [ -0.27336852222426,  0.00000000000000 ]
  - # 3
    frequency:   -0.0227963678
    eigenvector:
    - # atom 1
      - [  0.22261169152941,  0.00000000000000 ]
      - [ -0.00000000000037,  0.00000000000000 ]
      - [  0.22261169152953, -0.00000000000000 ]
    - # atom 2
      - [  0.22261169152941,  0.00000000000000 ]
      - [ -0.00000000000037,  0.00000000000000 ]
      - [  0.22261169152953, -0.00000000000000 ]
    - # atom 3
      - [  0.22261169152941, -0.00000000000000 ]
      - [ -0.00000000000037,  0.00000000000000 ]
      - [  0.22261169152953, -0.00000000000000 ]
    - # atom 4
      - [  0.22261169152941, -0.00000000000000 ]
      - [ -0.00000000000037,  0.00000000000000 ]
      - [  0.22261169152953, -0.00000000000000 ]
    - # atom 5
      - [  0.27467077528261, -0.00000000000000 ]
      - [ -0.00000000000046,  0.00000000000000 ]
      - [  0.27467077528275, -0.00000000000000 ]
    - # atom 6
      - [  0.27467077528261, -0.00000000000000 ]
      - [ -0.00000000000046,  0.00000000000000 ]
      - [  0.27467077528275, -0.00000000000000 ]
    - # atom 7
      - [  0.27467077528261,  0.00000000000000 ]
      - [ -0.00000000000046,  0.00000000000000 ]
      - [  0.27467077528275, -0.00000000000000 ]
    - # atom 8
      - [  0.27467077528261, -0.00000000000000 ]
      - [ -0.00000000000046,  0.00000000000000 ]
      - [  0.27467077528275, -0.00000000000000 ]
  - # 4
    frequency:    2.4138202845
    eigenvector:
    - # atom 1
      - [  0.00177275975327,  0.00000000000000 ]
      - [  0.37947548609350, -0.00000000000000 ]
      - [  0.09868990829775,  0.00000000000000 ]
    - # atom 2
      - [ -0.00177275975327,  0.00000000000000 ]
      - [ -0.25605724824192, -0.00000000000000 ]
      - [ -0.02523231357610,  0.00000000000000 ]
    - # atom 3
      - [  0.14576685584425, -0.00000000000000 ]
      - [ -0.37947548609350,  0.00000000000000 ]
      - [  0.02523231357610, -0.00000000000000 ]
    - # atom 4
      - [ -0.14576685584425,  0.00000000000000 ]
      - [  0.25605724824192,  0.00000000000000 ]
      - [ -0.09868990829775, -0.00000000000000 ]
    - # atom 5
      - [ -0.00183633972297, -0.00000000000000 ]
      - [ -0.39308536180642,  0.00000000000000 ]
      - [ -0.10222941858306, -0.00000000000000 ]
    - # atom 6
      - [  0.00183633972297,  0.00000000000000 ]
      - [  0.26524073295088,  0.00000000000000 ]
      - [  0.02613726966498, -0.00000000000000 ]
    - # atom 7
      - [ -0.15099477929071,  0.00000000000000 ]
      - [  0.39308536180642, -0.00000000000000 ]
      - [ -0.02613726966498,  0.00000000000000 ]
    - # atom 8
      - [  0.15099477929071, -0.00000000000000 ]
      - [ -0.26524073295088, -0.00000000000000 ]
      - [  0.10222941858306,  0.00000000000000 ]
  - # 5
    frequency:    2.4138202845
    eigenvector:
    - # atom 1
      - [  0.45073488178367, -0.00000000000000 ]
      - [ -0.08636917594815, -0.00000000000000 ]
      - [ -0.01198556820812,  0.00000000000000 ]
    - # atom 2
      - [ -0.45073488178368, -0.00000000000000 ]
      - [ -0.05849254692102, -0.00000000000000 ]
      - [  0.08654016378174, -0.00000000000000 ]
    - # atom 3
      - [  0.13970914595238, -0.00000000000000 ]
      - [  0.08636917594815,  0.00000000000000 ]
      - [ -0.08654016378174,  0.00000000000000 ]
    - # atom 4
      - [ -0.13970914595238,  0.00000000000000 ]
      - [  0.05849254692102,  0.00000000000000 ]
      - [  0.01198556820812, -0.00000000000000 ]
    - # atom 5
      - [ -0.46690047335774, -0.00000000000000 ]
      - [  0.08946680357670,  0.00000000000000 ]
      - [  0.01241543021407, -0.00000000000000 ]
    - # atom 6
      - [  0.46690047335774,  0.00000000000000 ]
      - [  0.06059038017482,  0.00000000000000 ]
      - [ -0.08964392388327,  0.00000000000000 ]
    - # atom 7
      - [ -0.14471980983464,  0.00000000000000 ]
      - [ -0.08946680357670, -0.00000000000000 ]
      - [  0.08964392388327, -0.00000000000000 ]
    - # atom 8
      - [  0.14471980983464, -0.00000000000000 ]
      - [ -0.06059038017482, -0.00000000000000 ]
      - [ -0.01241543021407,  0.00000000000000 ]
  - # 6
    frequency:    2.4138202845
    eigenvector:
    - # atom 1
      - [ -0.16619738413751,  0.00000000000000 ]
      - [ -0.05387700399097, -0.00000000000000 ]
      - [ -0.05327805841033,  0.00000000000000 ]
    - # atom 2
      - [  0.16619738413751,  0.00000000000000 ]
      - [  0.04912140594712, -0.00000000000000 ]
      - [  0.32079698746715, -0.00000000000000 ]
    - # atom 3
      - [  0.32016866220761, -0.00000000000000 ]
      - [  0.05387700399097,  0.00000000000000 ]
      - [ -0.32079698746715,  0.00000000000000 ]
    - # atom 4
      - [ -0.32016866220761,  0.00000000000000 ]
      - [ -0.04912140594712,  0.00000000000000 ]
      - [  0.05327805841033, -0.00000000000000 ]
    - # atom 5
      - [  0.17215804780306,  0.00000000000000 ]
      - [  0.05580930095078,  0.00000000000000 ]
      - [  0.05518887420677, -0.00000000000000 ]
    - # atom 6
      - [ -0.17215804780306,  0.00000000000000 ]
      - [ -0.05088314354094,  0.00000000000000 ]
      - [ -0.33230236077454,  0.00000000000000 ]
    - # atom 7
      - [ -0.33165150065042,  0.00000000000000 ]
      - [ -0.05580930095078, -0.00000000000000 ]
      - [  0.33230236077454, -0.00000000000000 ]
    - # atom 8
      - [  0.33165150065042, -0.00000000000000 ]
      - [  0.05088314354094, -0.00000000000000 ]
      - [ -0.05518887420677,  0.00000000000000 ]
  - # 7
    frequency:    2.4138202845
    eigenvector:
    - # atom 1
      - [  0.00224715695775, -0.00000000000000 ]
      - [  0.04402279854165, -0.00000000000000 ]
      - [ -0.22542423660915, -0.00000000000000 ]
    - # atom 2
      - [ -0.00224715695775,  0.00000000000000 ]
      - [  0.15646345691699,  0.00000000000000 ]
      - [ -0.31128444378894, -0.00000000000000 ]
    - # atom 3
      - [  0.25895266799000,  0.00000000000000 ]
      - [ -0.04402279854165,  0.00000000000000 ]
      - [  0.31128444378894,  0.00000000000000 ]
    - # atom 4
      - [ -0.25895266799000, -0.00000000000000 ]
      - [ -0.15646345691699, -0.00000000000000 ]
      - [  0.22542423660915,  0.00000000000000 ]
    - # atom 5
      - [ -0.00232775116745, -0.00000000000000 ]
      - [ -0.04560167475011,  0.00000000000000 ]
      - [  0.23350906937270,  0.00000000000000 ]
    - # atom 6
      - [  0.00232775116745,  0.00000000000000 ]
      - [ -0.16207501360588, -0.00000000000000 ]
      - [  0.32244865003306,  0.00000000000000 ]
    - # atom 7
      - [ -0.26823999683213, -0.00000000000000 ]
      - [  0.04560167475011, -0.00000000000000 ]
      - [ -0.32244865003306, -0.00000000000000 ]
    - # atom 8
      - [  0.26823999683213,  0.00000000000000 ]
      - [  0.16207501360588,  0.00000000000000 ]
      - [ -0.23350906937270, -0.00000000000000 ]
  - # 8
    frequency:    2.4138202845
    eigenvector:
    - # atom 1
      - [ -0.10193299755396,  0.00000000000000 ]
      - [ -0.28802042888797,  0.00000000000000 ]
      - [  0.04510052244020, -0.00000000000000 ]
    - # atom 2
      - [  0.10193299755396,  0.00000000000000 ]
      - [ -0.33334967364593,  0.00000000000000 ]
      - [ -0.15120174449882,  0.00000000000000 ]
    - # atom 3
      - [  0.10876723992239,  0.00000000000000 ]
      - [  0.28802042888797, -0.00000000000000 ]
      - [  0.15120174449882, -0.00000000000000 ]
    - # atom 4
      - [ -0.10876723992239, -0.00000000000000 ]
      - [  0.33334967364593, -0.00000000000000 ]
      - [ -0.04510052244020,  0.00000000000000 ]
    - # atom 5
      - [  0.10558882112781,  0.00000000000000 ]
      - [  0.29835027200986, -0.00000000000000 ]
      - [ -0.04671805118051,  0.00000000000000 ]
    - # atom 6
      - [ -0.10558882112781,  0.00000000000000 ]
      - [  0.34530524862647, -0.00000000000000 ]
      - [  0.15662459004647, -0.00000000000000 ]
    - # atom 7
      - [ -0.11266817337193, -0.00000000000000 ]
      - [ -0.29835027200986,  0.00000000000000 ]
      - [ -0.15662459004647,  0.00000000000000 ]
    - # atom 8
      - [  0.11266817337193,  0.00000000000000 ]
      - [ -0.34530524862647,  0.00000000000000 ]
      - [  0.04671805118051, -0.00000000000000 ]
  - # 9
    frequency:    2.4138202845
    eigenvector:
    - # atom 1
      - [ -0.00352320573232,  0.00000000000000 ]
      - [  0.04400750622392, -0.00000000000000 ]
      - [ -0.41907326159388,  0.00000000000000 ]
    - # atom 2
      - [  0.00352320573232, -0.00000000000000 ]
      - [ -0.18491084959023,  0.00000000000000 ]
      - [  0.10197007533071,  0.00000000000000 ]
    - # atom 3
      - [ -0.13796033772955, -0.00000000000000 ]
      - [ -0.04400750622392,  0.00000000000000 ]
      - [ -0.10197007533071, -0.00000000000000 ]
    - # atom 4
      - [  0.13796033772955,  0.00000000000000 ]
      - [  0.18491084959023, -0.00000000000000 ]
      - [  0.41907326159388, -0.00000000000000 ]
    - # atom 5
      - [  0.00364956538897,  0.00000000000000 ]
      - [ -0.04558583397391,  0.00000000000000 ]
      - [  0.43410331021077, -0.00000000000000 ]
    - # atom 6
      - [ -0.00364956538897, -0.00000000000000 ]
      - [  0.19154267107309, -0.00000000000000 ]
      - [ -0.10562722869778, -0.00000000000000 ]
    - # atom 7
      - [  0.14290828066294,  0.00000000000000 ]
      - [  0.04558583397391, -0.00000000000000 ]
      - [  0.10562722869778,  0.00000000000000 ]
    - # atom 8
      - [ -0.14290828066294, -0.00000000000000 ]
      - [ -0.19154267107309,  0.00000000000000 ]
      - [ -0.43410331021077,  0.00000000000000 ]
  - # 10
    frequency:    4.0662471864
    eigenvector:
    - # atom 1
      - [  0.00000026241026,  0.00000000000000 ]
      - [ -0.39461259568397, -0.00000000000000 ]
      - [  0.03651190819653,  0.00000000000000 ]
    - # atom 2
      - [  0.00000026241026,  0.00000000000000 ]
      - [  0.39461259568397,  0.00000000000000 ]
      - [ -0.03651190819653, -0.00000000000000 ]
    - # atom 3
      - [ -0.00000026241026, -0.00000000000000 ]
      - [ -0.39461259568397, -0.00000000000000 ]
      - [ -0.03651190819653, -0.00000000000000 ]
    - # atom 4
      - [ -0.00000026241026, -0.00000000000000 ]
      - [  0.39461259568397,  0.00000000000000 ]
      - [  0.03651190819653,  0.00000000000000 ]
    - # atom 5
      - [  0.00000020187302,  0.00000000000000 ]
      - [ -0.30357668472081, -0.00000000000000 ]
      - [  0.02808872338178,  0.00000000000000 ]
    - # atom 6
      - [  0.00000020187302, -0.00000000000000 ]
      - [  0.30357668472081,  0.00000000000000 ]
      - [ -0.02808872338178, -0.00000000000000 ]
    - # atom 7
      - [ -0.00000020187302, -0.00000000000000 ]
      - [ -0.30357668472081, -0.00000000000000 ]
      - [ -0.02808872338178, -0.00000000000000 ]
    - # atom 8
      - [ -0.00000020187302,  0.00000000000000 ]
      - [  0.30357668472081,  0.00000000000000 ]
      - [  0.02808872338178,  0.00000000000000 ]
  - # 11
    frequency:    4.0662471864
    eigenvector:
    - # atom 1
      - [ -0.00002940561287,  0.00000000000000 ]
      - [  0.03651190807663, -0.00000000000000 ]
      - [  0.39461259459953,  0.00000000000000 ]
    - # atom 2
      - [ -0.00002940561287,  0.00000000000000 ]
      - [ -0.03651190807663,  0.00000000000000 ]
      - [ -0.39461259459953, -0.00000000000000 ]
    - # atom 3
      - [  0.00002940561287,  0.00000000000000 ]
      - [  0.03651190807663, -0.00000000000000 ]
      - [ -0.39461259459953, -0.00000000000000 ]
    - # atom 4
      - [  0.00002940561287, -0.00000000000000 ]
      - [ -0.03651190807663,  0.00000000000000 ]
      - [  0.39461259459953,  0.00000000000000 ]
    - # atom 5
      - [ -0.00002262182851, -0.00000000000000 ]
      - [  0.02808872328954, -0.00000000000000 ]
      - [  0.30357668388655,  0.00000000000000 ]
    - # atom 6
      - [ -0.00002262182851, -0.00000000000000 ]
      - [ -0.02808872328954,  0.00000000000000 ]
      - [ -0.30357668388655, -0.00000000000000 ]
    - # atom 7
      - [  0.00002262182851,  0.00000000000000 ]
      - [  0.02808872328954, -0.00000000000000 ]
      - [ -0.30357668388655, -0.00000000000000 ]
    - # atom 8
      - [  0.00002262182851, -0.00000000000000 ]
      - [ -0.02808872328954,  0.00000000000000 ]
      - [  0.30357668388655,  0.00000000000000 ]
  - # 12
    frequency:    4.0662471864
    eigenvector:
    - # atom 1
      - [  0.39629814439119,  0.00000000000000 ]
      - [  0.00000297050451,  0.00000000000000 ]
      - [  0.00002925636735,  0.00000000000000 ]
    - # atom 2
      - [  0.39629814439119,  0.00000000000000 ]
      - [ -0.00000297050451, -0.00000000000000 ]
      - [ -0.00002925636735, -0.00000000000000 ]
    - # atom 3
      - [ -0.39629814439119, -0.00000000000000 ]
      - [  0.00000297050451,  0.00000000000000 ]
      - [ -0.00002925636735, -0.00000000000000 ]
    - # atom 4
      - [ -0.39629814439119, -0.00000000000000 ]
      - [ -0.00000297050451, -0.00000000000000 ]
      - [  0.00002925636735,  0.00000000000000 ]
    - # atom 5
      - [  0.30487338253044,  0.00000000000000 ]
      - [  0.00000228521827,  0.00000000000000 ]
      - [  0.00002250701347,  0.00000000000000 ]
    - # atom 6
      - [  0.30487338253044,  0.00000000000000 ]
      - [ -0.00000228521827, -0.00000000000000 ]
      - [ -0.00002250701347, -0.00000000000000 ]
    - # atom 7
      - [ -0.30487338253044, -0.00000000000000 ]
      - [  0.00000228521827,  0.00000000000000 ]
      - [ -0.00002250701347, -0.00000000000000 ]
    - # atom 8
      - [ -0.30487338253044,  0.00000000000000 ]
      - [ -0.00000228521827, -0.00000000000000 ]
      - [  0.00002250701347,  0.00000000000000 ]
  - # 13
    frequency:    4.6084532143
    eigenvector:
    - # atom 1
      - [ -0.00002504871841,  0.00000000000000 ]
      - [ -0.38688131438381, -0.00000000000000 ]
      - [  0.00002504871842,  0.00000000000000 ]
    - # atom 2
      - [ -0.00002504871842,  0.00000000000000 ]
      - [ -0.38688131438382, -0.00000000000000 ]
      - [  0.00002504871842, -0.00000000000000 ]
    - # atom 3
      - [ -0.00002504871841, -0.00000000000000 ]
      - [ -0.38688131438382, -0.00000000000000 ]
      - [  0.00002504871841,  0.00000000000000 ]
    - # atom 4
      - [ -0.00002504871842,  0.00000000000000 ]
      - [ -0.38688131438382, -0.00000000000000 ]
      - [  0.00002504871841, -0.00000000000000 ]
    - # atom 5
      - [  0.00002050726195, -0.00000000000000 ]
      - [  0.31673781978899,  0.00000000000000 ]
      - [ -0.00002050726195,  0.00000000000000 ]
    - # atom 6
      - [  0.00002050726195,  0.00000000000000 ]
      - [  0.31673781978899,  0.00000000000000 ]
      - [ -0.00002050726195, -0.00000000000000 ]
    - # atom 7
      - [  0.00002050726196, -0.00000000000000 ]
      - [  0.31673781978898,  0.00000000000000 ]
      - [ -0.00002050726195,  0.00000000000000 ]
    - # atom 8
      - [  0.00002050726195,  0.00000000000000 ]
      - [  0.31673781978899,  0.00000000000000 ]
      - [ -0.00002050726195, -0.00000000000000 ]
  - # 14
    frequency:    4.6084532143
    eigenvector:
    - # atom 1
      - [  0.27356640091516,  0.00000000000000 ]
      - [ -0.00003542423730, -0.00000000000000 ]
      - [ -0.27356640091516, -0.00000000000000 ]
    - # atom 2
      - [  0.27356640091516,  0.00000000000000 ]
      - [ -0.00003542423730, -0.00000000000000 ]
      - [ -0.27356640091516, -0.00000000000000 ]
    - # atom 3
      - [  0.27356640091516,  0.00000000000000 ]
      - [ -0.00003542423730, -0.00000000000000 ]
      - [ -0.27356640091516, -0.00000000000000 ]
    - # atom 4
      - [  0.27356640091516,  0.00000000000000 ]
      - [ -0.00003542423730,  0.00000000000000 ]
      - [ -0.27356640091516, -0.00000000000000 ]
    - # atom 5
      - [ -0.22396746023104, -0.00000000000000 ]
      - [  0.00002900164798, -0.00000000000000 ]
      - [  0.22396746023103,  0.00000000000000 ]
    - # atom 6
      - [ -0.22396746023103, -0.00000000000000 ]
      - [  0.00002900164798,  0.00000000000000 ]
      - [  0.22396746023103,  0.00000000000000 ]
    - # atom 7
      - [ -0.22396746023103, -0.00000000000000 ]
      - [  0.00002900164798, -0.00000000000000 ]
      - [  0.22396746023103,  0.00000000000000 ]
    - # atom 8
      - [ -0.22396746023103, -0.00000000000000 ]
      - [  0.00002900164798,  0.00000000000000 ]
      - [  0.22396746023103,  0.00000000000000 ]
  - # 15
    frequency:    4.8667643502
    eigenvector:
    - # atom 1
      - [ -0.00071895628576,  0.00000000000000 ]
      - [  0.28590504108203,  0.00000000000000 ]
      - [  0.01998918126504, -0.00000000000000 ]
    - # atom 2
      - [  0.00071895628576, -0.00000000000000 ]
      - [  0.05608955189734, -0.00000000000000 ]
      - [ -0.40648914072838,  0.00000000000000 ]
    - # atom 3
      - [  0.09101823083733, -0.00000000000000 ]
      - [ -0.28590504108203, -0.00000000000000 ]
      - [  0.40648914072838, -0.00000000000000 ]
    - # atom 4
      - [ -0.09101823083733,  0.00000000000000 ]
      - [ -0.05608955189734,  0.00000000000000 ]
      - [ -0.01998918126504,  0.00000000000000 ]
    - # atom 5
      - [ -0.00069406371371, -0.00000000000000 ]
      - [  0.27600609176236,  0.00000000000000 ]
      - [  0.01929709171134, -0.00000000000000 ]
    - # atom 6
      - [  0.00069406371371,  0.00000000000000 ]
      - [  0.05414755175109, -0.00000000000000 ]
      - [ -0.39241518320795,  0.00000000000000 ]
    - # atom 7
      - [  0.08786688782213, -0.00000000000000 ]
      - [ -0.27600609176236, -0.00000000000000 ]
      - [  0.39241518320795, -0.00000000000000 ]
    - # atom 8
      - [ -0.08786688782213,  0.00000000000000 ]
      - [ -0.05414755175109,  0.00000000000000 ]
      - [ -0.01929709171134,  0.00000000000000 ]
  - # 16
    frequency:    4.8667643502
    eigenvector:
    - # atom 1
      - [  0.07712231830558, -0.00000000000000 ]
      - [ -0.17696051586200, -0.00000000000000 ]
      - [ -0.20430775859226,  0.00000000000000 ]
    - # atom 2
      - [ -0.07712231830559,  0.00000000000000 ]
      - [ -0.15217637937827,  0.00000000000000 ]
      - [ -0.22807367608941, -0.00000000000000 ]
    - # atom 3
      - [ -0.32345906378894,  0.00000000000000 ]
      - [  0.17696051586200,  0.00000000000000 ]
      - [  0.22807367608941,  0.00000000000000 ]
    - # atom 4
      - [  0.32345906378894, -0.00000000000000 ]
      - [  0.15217637937826, -0.00000000000000 ]
      - [  0.20430775859226, -0.00000000000000 ]
    - # atom 5
      - [  0.07445209634156,  0.00000000000000 ]
      - [ -0.17083357535241, -0.00000000000000 ]
      - [ -0.19723396884632,  0.00000000000000 ]
    - # atom 6
      - [ -0.07445209634156, -0.00000000000000 ]
      - [ -0.14690754514780,  0.00000000000000 ]
      - [ -0.22017703407074, -0.00000000000000 ]
    - # atom 7
      - [ -0.31225987378055,  0.00000000000000 ]
      - [  0.17083357535241,  0.00000000000000 ]
      - [  0.22017703407074,  0.00000000000000 ]
    - # atom 8
      - [  0.31225987378055, -0.00000000000000 ]
      - [  0.14690754514780, -0.00000000000000 ]
      - [  0.19723396884632, -0.00000000000000 ]
  - # 17
    frequency:    4.8667643502
    eigenvector:
    - # atom 1
      - [ -0.00033712020156,  0.00000000000000 ]
      - [ -0.19595424529207, -0.00000000000000 ]
      - [  0.10148050116043,  0.00000000000000 ]
    - # atom 2
      - [  0.00033712020156,  0.00000000000000 ]
      - [  0.43806639741828,  0.00000000000000 ]
      - [ -0.09405153668204, -0.00000000000000 ]
    - # atom 3
      - [ -0.09675341015038, -0.00000000000000 ]
      - [  0.19595424529207,  0.00000000000000 ]
      - [  0.09405153668204,  0.00000000000000 ]
    - # atom 4
      - [  0.09675341015038,  0.00000000000000 ]
      - [ -0.43806639741828, -0.00000000000000 ]
      - [ -0.10148050116043, -0.00000000000000 ]
    - # atom 5
      - [ -0.00032544801916, -0.00000000000000 ]
      - [ -0.18916968096337, -0.00000000000000 ]
      - [  0.09796692079781,  0.00000000000000 ]
    - # atom 6
      - [  0.00032544801916, -0.00000000000000 ]
      - [  0.42289913401404,  0.00000000000000 ]
      - [ -0.09079517089175, -0.00000000000000 ]
    - # atom 7
      - [ -0.09340349683665, -0.00000000000000 ]
      - [  0.18916968096337,  0.00000000000000 ]
      - [  0.09079517089175,  0.00000000000000 ]
    - # atom 8
      - [  0.09340349683665,  0.00000000000000 ]
      - [ -0.42289913401404, -0.00000000000000 ]
      - [ -0.09796692079781, -0.00000000000000 ]
  - # 18
    frequency:    4.8667643502
    eigenvector:
    - # atom 1
      - [ -0.00296351316647,  0.00000000000000 ]
      - [  0.30160651393211,  0.00000000000000 ]
      - [ -0.23576757763543,  0.00000000000000 ]
    - # atom 2
      - [  0.00296351316647, -0.00000000000000 ]
      - [  0.17767358510829, -0.00000000000000 ]
      - [  0.17496274005679, -0.00000000000000 ]
    - # atom 3
      - [ -0.22375001433461,  0.00000000000000 ]
      - [ -0.30160651393212, -0.00000000000000 ]
      - [ -0.17496274005679,  0.00000000000000 ]
    - # atom 4
      - [  0.22375001433461, -0.00000000000000 ]
      - [ -0.17767358510829,  0.00000000000000 ]
      - [  0.23576757763543, -0.00000000000000 ]
    - # atom 5
      - [ -0.00286090683769,  0.00000000000000 ]
      - [  0.29116392927325,  0.00000000000000 ]
      - [ -0.22760454807359,  0.00000000000000 ]
    - # atom 6
      - [  0.00286090683769, -0.00000000000000 ]
      - [  0.17152195585484, -0.00000000000000 ]
      - [  0.16890496895175, -0.00000000000000 ]
    - # atom 7
      - [ -0.21600307135035,  0.00000000000000 ]
      - [ -0.29116392927325, -0.00000000000000 ]
      - [ -0.16890496895175,  0.00000000000000 ]
    - # atom 8
      - [  0.21600307135035, -0.00000000000000 ]
      - [ -0.17152195585484,  0.00000000000000 ]
      - [  0.22760454807359, -0.00000000000000 ]
  - # 19
    frequency:    4.8667643502
    eigenvector:
    - # atom 1
      - [  0.49958544498660,  0.00000000000000 ]
      - [  0.04316391887359,  0.00000000000000 ]
      - [  0.07382490891742, -0.00000000000000 ]
    - # atom 2
      - [ -0.49958544498660, -0.00000000000000 ]
      - [  0.01417788194423, -0.00000000000000 ]
      - [  0.03844248755401,  0.00000000000000 ]
    - # atom 3
      - [  0.01509501213606, -0.00000000000000 ]
      - [ -0.04316391887359, -0.00000000000000 ]
      - [ -0.03844248755401, -0.00000000000000 ]
    - # atom 4
      - [ -0.01509501213606,  0.00000000000000 ]
      - [ -0.01417788194423,  0.00000000000000 ]
      - [ -0.07382490891742,  0.00000000000000 ]
    - # atom 5
      - [  0.48228819488548,  0.00000000000000 ]
      - [  0.04166944559060,  0.00000000000000 ]
      - [  0.07126885384005, -0.00000000000000 ]
    - # atom 6
      - [ -0.48228819488548,  0.00000000000000 ]
      - [  0.01368699820782, -0.00000000000000 ]
      - [  0.03711148536328,  0.00000000000000 ]
    - # atom 7
      - [  0.01457237441149, -0.00000000000000 ]
      - [ -0.04166944559060, -0.00000000000000 ]
      - [ -0.03711148536328, -0.00000000000000 ]
    - # atom 8
      - [ -0.01457237441149,  0.00000000000000 ]
      - [ -0.01368699820782,  0.00000000000000 ]
      - [ -0.07126885384005,  0.00000000000000 ]
  - # 20
    frequency:    4.8667643502
    eigenvector:
    - # atom 1
      - [  0.05711981011047,  0.00000000000000 ]
      - [ -0.12050376928441, -0.00000000000000 ]
      - [ -0.38122115227731,  0.00000000000000 ]
    - # atom 2
      - [ -0.05711981011047, -0.00000000000000 ]
      - [  0.09397224317525, -0.00000000000000 ]
      - [ -0.02488080432767, -0.00000000000000 ]
    - # atom 3
      - [  0.29367042669458, -0.00000000000000 ]
      - [  0.12050376928441,  0.00000000000000 ]
      - [  0.02488080432767,  0.00000000000000 ]
    - # atom 4
      - [ -0.29367042669458,  0.00000000000000 ]
      - [ -0.09397224317525,  0.00000000000000 ]
      - [  0.38122115227731, -0.00000000000000 ]
    - # atom 5
      - [  0.05514213912121,  0.00000000000000 ]
      - [ -0.11633154237837, -0.00000000000000 ]
      - [ -0.36802205354265,  0.00000000000000 ]
    - # atom 6
      - [ -0.05514213912121,  0.00000000000000 ]
      - [  0.09071862278043, -0.00000000000000 ]
      - [ -0.02401935109782, -0.00000000000000 ]
    - # atom 7
      - [  0.28350261482413, -0.00000000000000 ]
      - [  0.11633154237837,  0.00000000000000 ]
      - [  0.02401935109781,  0.00000000000000 ]
    - # atom 8
      - [ -0.28350261482413,  0.00000000000000 ]
      - [ -0.09071862278043,  0.00000000000000 ]
      - [  0.36802205354265, -0.00000000000000 ]
  - # 21
    frequency:    5.2556592515
    eigenvector:
    - # atom 1
      - [ -0.06588265287778,  0.00000000000000 ]
      - [  0.29177666106147, -0.00000000000000 ]
      - [  0.05893756015432, -0.00000000000000 ]
    - # atom 2
      - [ -0.06588265287778, -0.00000000000000 ]
      - [ -0.29177666106147,  0.00000000000000 ]
      - [ -0.05893756015432,  0.00000000000000 ]
    - # atom 3
      - [  0.06588265287778, -0.00000000000000 ]
      - [  0.29177666106147, -0.00000000000000 ]
      - [ -0.05893756015432,  0.00000000000000 ]
    - # atom 4
      - [  0.06588265287778,  0.00000000000000 ]
      - [ -0.29177666106147,  0.00000000000000 ]
      - [  0.05893756015432, -0.00000000000000 ]
    - # atom 5
      - [  0.08563939844905,  0.00000000000000 ]
      - [ -0.37927400678796,  0.00000000000000 ]
      - [ -0.07661162653899,  0.00000000000000 ]
    - # atom 6
      - [  0.08563939844905,  0.00000000000000 ]
      - [  0.37927400678796, -0.00000000000000 ]
      - [  0.07661162653899, -0.00000000000000 ]
    - # atom 7
      - [ -0.08563939844905, -0.00000000000000 ]
      - [ -0.37927400678796,  0.00000000000000 ]
      - [  0.07661162653899, -0.00000000000000 ]
    - # atom 8
      - [ -0.08563939844905,  0.00000000000000 ]
      - [  0.37927400678796, -0.00000000000000 ]
      - [ -0.07661162653899,  0.00000000000000 ]