phonopy:
  version: 2.15.1
  frequency_unit_conversion_factor: 15.633302
  symmetry_tolerance: 1.00000e-05
  nac_unit_conversion_factor: 14.399652
  configuration:
    atom_name: "Si O"
    dim: "2 2 2"
    band: "0 0 0  1/2 0 0  1/3 1/3 0  0 0 0  0 0 1/2  1/2 0 1/2  1/3 1/3 1/2  0 0 1/2"
    band_points: "101"
    eigenvectors: ".TRUE."
    include_all: ".TRUE."
    nac: ".TRUE."

physical_unit:
  atomic_mass: "AMU"
  length: "angstrom"
  force_constants: "eV/angstrom^2"

space_group:
  type: "P3_121"
  number: 152
  Hall_symbol: "P 31 2\""

supercell_matrix:
- [   2,   0,   0 ]
- [   0,   2,   0 ]
- [   0,   0,   2 ]

primitive_cell:
  lattice:
  - [     4.959874720000000,     0.000000000000000,     0.000000000000000 ] # a
  - [    -2.479937360000000,     4.295377510000000,     0.000000000000000 ] # b
  - [     0.000000000000000,     0.000000000000000,     5.453559970000000 ] # c
  points:
  - symbol: O  # 1
    coordinates: [  0.586885160000000,  0.734225330000000,  0.213280300000000 ]
    mass: 15.999400
  - symbol: O  # 2
    coordinates: [  0.147340170000000,  0.413114840000000,  0.879946960000000 ]
    mass: 15.999400
  - symbol: O  # 3
    coordinates: [  0.265774670000000,  0.852659830000000,  0.546613630000000 ]
    mass: 15.999400
  - symbol: O  # 4
    coordinates: [  0.734225330000000,  0.586885160000000,  0.786719700000000 ]
    mass: 15.999400
  - symbol: O  # 5
    coordinates: [  0.852659830000000,  0.265774670000000,  0.453386370000000 ]
    mass: 15.999400
  - symbol: O  # 6
    coordinates: [  0.413114840000000,  0.147340170000000,  0.120053040000000 ]
    mass: 15.999400
  - symbol: Si # 7
    coordinates: [  0.470908320000000,  0.470908320000000,  0.000000000000000 ]
    mass: 28.085500
  - symbol: Si # 8
    coordinates: [  0.529091680000000,  0.000000000000000,  0.333333330000000 ]
    mass: 28.085500
  - symbol: Si # 9
    coordinates: [  0.000000000000000,  0.529091680000000,  0.666666670000000 ]
    mass: 28.085500
  reciprocal_lattice: # without 2pi
  - [     0.201617995706150,     0.116404204016052,     0.000000000000000 ] # a*
  - [     0.000000000000000,     0.232808408032103,     0.000000000000000 ] # b*
  - [     0.000000000000000,     0.000000000000000,     0.183366462549416 ] # c*

unit_cell:
  lattice:
  - [     4.959874720000000,     0.000000000000000,     0.000000000000000 ] # a
  - [    -2.479937360000000,     4.295377510000000,     0.000000000000000 ] # b
  - [     0.000000000000000,     0.000000000000000,     5.453559970000000 ] # c
  points:
  - symbol: O  # 1
    coordinates: [  0.586885160000000,  0.734225330000000,  0.213280300000000 ]
    mass: 15.999400
    reduced_to: 1
  - symbol: O  # 2
    coordinates: [  0.147340170000000,  0.413114840000000,  0.879946960000000 ]
    mass: 15.999400
    reduced_to: 2
  - symbol: O  # 3
    coordinates: [  0.265774670000000,  0.852659830000000,  0.546613630000000 ]
    mass: 15.999400
    reduced_to: 3
  - symbol: O  # 4
    coordinates: [  0.734225330000000,  0.586885160000000,  0.786719700000000 ]
    mass: 15.999400
    reduced_to: 4
  - symbol: O  # 5
    coordinates: [  0.852659830000000,  0.265774670000000,  0.453386370000000 ]
    mass: 15.999400
    reduced_to: 5
  - symbol: O  # 6
    coordinates: [  0.413114840000000,  0.147340170000000,  0.120053040000000 ]
    mass: 15.999400
    reduced_to: 6
  - symbol: Si # 7
    coordinates: [  0.470908320000000,  0.470908320000000,  0.000000000000000 ]
    mass: 28.085500
    reduced_to: 7
  - symbol: Si # 8
    coordinates: [  0.529091680000000,  0.000000000000000,  0.333333330000000 ]
    mass: 28.085500
    reduced_to: 8
  - symbol: Si # 9
    coordinates: [  0.000000000000000,  0.529091680000000,  0.666666670000000 ]
    mass: 28.085500
    reduced_to: 9

supercell:
  lattice:
  - [     9.919749440000000,     0.000000000000000,     0.000000000000000 ] # a
  - [    -4.959874720000000,     8.590755020000000,     0.000000000000000 ] # b
  - [     0.000000000000000,     0.000000000000000,    10.907119939999999 ] # c
  points:
  - symbol: O  # 1
    coordinates: [  0.293442580000000,  0.367112665000000,  0.106640150000000 ]
    mass: 15.999400
    reduced_to: 1
  - symbol: O  # 2
    coordinates: [  0.793442580000000,  0.367112665000000,  0.106640150000000 ]
    mass: 15.999400
    reduced_to: 1
  - symbol: O  # 3
    coordinates: [  0.293442580000000,  0.867112665000000,  0.106640150000000 ]
    mass: 15.999400
    reduced_to: 1
  - symbol: O  # 4
    coordinates: [  0.793442580000000,  0.867112665000000,  0.106640150000000 ]
    mass: 15.999400
    reduced_to: 1
  - symbol: O  # 5
    coordinates: [  0.293442580000000,  0.367112665000000,  0.606640150000000 ]
    mass: 15.999400
    reduced_to: 1
  - symbol: O  # 6
    coordinates: [  0.793442580000000,  0.367112665000000,  0.606640150000000 ]
    mass: 15.999400
    reduced_to: 1
  - symbol: O  # 7
    coordinates: [  0.293442580000000,  0.867112665000000,  0.606640150000000 ]
    mass: 15.999400
    reduced_to: 1
  - symbol: O  # 8
    coordinates: [  0.793442580000000,  0.867112665000000,  0.606640150000000 ]
    mass: 15.999400
    reduced_to: 1
  - symbol: O  # 9
    coordinates: [  0.073670085000000,  0.206557420000000,  0.439973480000000 ]
    mass: 15.999400
    reduced_to: 9
  - symbol: O  # 10
    coordinates: [  0.573670085000000,  0.206557420000000,  0.439973480000000 ]
    mass: 15.999400
    reduced_to: 9
  - symbol: O  # 11
    coordinates: [  0.073670085000000,  0.706557420000000,  0.439973480000000 ]
    mass: 15.999400
    reduced_to: 9
  - symbol: O  # 12
    coordinates: [  0.573670085000000,  0.706557420000000,  0.439973480000000 ]
    mass: 15.999400
    reduced_to: 9
  - symbol: O  # 13
    coordinates: [  0.073670085000000,  0.206557420000000,  0.939973480000000 ]
    mass: 15.999400
    reduced_to: 9
  - symbol: O  # 14
    coordinates: [  0.573670085000000,  0.206557420000000,  0.939973480000000 ]
    mass: 15.999400
    reduced_to: 9
  - symbol: O  # 15
    coordinates: [  0.073670085000000,  0.706557420000000,  0.939973480000000 ]
    mass: 15.999400
    reduced_to: 9
  - symbol: O  # 16
    coordinates: [  0.573670085000000,  0.706557420000000,  0.939973480000000 ]
    mass: 15.999400
    reduced_to: 9
  - symbol: O  # 17
    coordinates: [  0.132887335000000,  0.426329915000000,  0.273306815000000 ]
    mass: 15.999400
    reduced_to: 17
  - symbol: O  # 18
    coordinates: [  0.632887335000000,  0.426329915000000,  0.273306815000000 ]
    mass: 15.999400
    reduced_to: 17
  - symbol: O  # 19
    coordinates: [  0.132887335000000,  0.926329915000000,  0.273306815000000 ]
    mass: 15.999400
    reduced_to: 17
  - symbol: O  # 20
    coordinates: [  0.632887335000000,  0.926329915000000,  0.273306815000000 ]
    mass: 15.999400
    reduced_to: 17
  - symbol: O  # 21
    coordinates: [  0.132887335000000,  0.426329915000000,  0.773306815000000 ]
    mass: 15.999400
    reduced_to: 17
  - symbol: O  # 22
    coordinates: [  0.632887335000000,  0.426329915000000,  0.773306815000000 ]
    mass: 15.999400
    reduced_to: 17
  - symbol: O  # 23
    coordinates: [  0.132887335000000,  0.926329915000000,  0.773306815000000 ]
    mass: 15.999400
    reduced_to: 17
  - symbol: O  # 24
    coordinates: [  0.632887335000000,  0.926329915000000,  0.773306815000000 ]
    mass: 15.999400
    reduced_to: 17
  - symbol: O  # 25
    coordinates: [  0.367112665000000,  0.293442580000000,  0.393359850000000 ]
    mass: 15.999400
    reduced_to: 25
  - symbol: O  # 26
    coordinates: [  0.867112665000000,  0.293442580000000,  0.393359850000000 ]
    mass: 15.999400
    reduced_to: 25
  - symbol: O  # 27
    coordinates: [  0.367112665000000,  0.793442580000000,  0.393359850000000 ]
    mass: 15.999400
    reduced_to: 25
  - symbol: O  # 28
    coordinates: [  0.867112665000000,  0.793442580000000,  0.393359850000000 ]
    mass: 15.999400
    reduced_to: 25
  - symbol: O  # 29
    coordinates: [  0.367112665000000,  0.293442580000000,  0.893359850000000 ]
    mass: 15.999400
    reduced_to: 25
  - symbol: O  # 30
    coordinates: [  0.867112665000000,  0.293442580000000,  0.893359850000000 ]
    mass: 15.999400
    reduced_to: 25
  - symbol: O  # 31
    coordinates: [  0.367112665000000,  0.793442580000000,  0.893359850000000 ]
    mass: 15.999400
    reduced_to: 25
  - symbol: O  # 32
    coordinates: [  0.867112665000000,  0.793442580000000,  0.893359850000000 ]
    mass: 15.999400
    reduced_to: 25
  - symbol: O  # 33
    coordinates: [  0.426329915000000,  0.132887335000000,  0.226693185000000 ]
    mass: 15.999400
    reduced_to: 33
  - symbol: O  # 34
    coordinates: [  0.926329915000000,  0.132887335000000,  0.226693185000000 ]
    mass: 15.999400
    reduced_to: 33
  - symbol: O  # 35
    coordinates: [  0.426329915000000,  0.632887335000000,  0.226693185000000 ]
    mass: 15.999400
    reduced_to: 33
  - symbol: O  # 36
    coordinates: [  0.926329915000000,  0.632887335000000,  0.226693185000000 ]
    mass: 15.999400
    reduced_to: 33
  - symbol: O  # 37
    coordinates: [  0.426329915000000,  0.132887335000000,  0.726693185000000 ]
    mass: 15.999400
    reduced_to: 33
  - symbol: O  # 38
    coordinates: [  0.926329915000000,  0.132887335000000,  0.726693185000000 ]
    mass: 15.999400
    reduced_to: 33
  - symbol: O  # 39
    coordinates: [  0.426329915000000,  0.632887335000000,  0.726693185000000 ]
    mass: 15.999400
    reduced_to: 33
  - symbol: O  # 40
    coordinates: [  0.926329915000000,  0.632887335000000,  0.726693185000000 ]
    mass: 15.999400
    reduced_to: 33
  - symbol: O  # 41
    coordinates: [  0.206557420000000,  0.073670085000000,  0.060026520000000 ]
    mass: 15.999400
    reduced_to: 41
  - symbol: O  # 42
    coordinates: [  0.706557420000000,  0.073670085000000,  0.060026520000000 ]
    mass: 15.999400
    reduced_to: 41
  - symbol: O  # 43
    coordinates: [  0.206557420000000,  0.573670085000000,  0.060026520000000 ]
    mass: 15.999400
    reduced_to: 41
  - symbol: O  # 44
    coordinates: [  0.706557420000000,  0.573670085000000,  0.060026520000000 ]
    mass: 15.999400
    reduced_to: 41
  - symbol: O  # 45
    coordinates: [  0.206557420000000,  0.073670085000000,  0.560026520000000 ]
    mass: 15.999400
    reduced_to: 41
  - symbol: O  # 46
    coordinates: [  0.706557420000000,  0.073670085000000,  0.560026520000000 ]
    mass: 15.999400
    reduced_to: 41
  - symbol: O  # 47
    coordinates: [  0.206557420000000,  0.573670085000000,  0.560026520000000 ]
    mass: 15.999400
    reduced_to: 41
  - symbol: O  # 48
    coordinates: [  0.706557420000000,  0.573670085000000,  0.560026520000000 ]
    mass: 15.999400
    reduced_to: 41
  - symbol: Si # 49
    coordinates: [  0.235454160000000,  0.235454160000000,  0.000000000000000 ]
    mass: 28.085500
    reduced_to: 49
  - symbol: Si # 50
    coordinates: [  0.735454160000000,  0.235454160000000,  0.000000000000000 ]
    mass: 28.085500
    reduced_to: 49
  - symbol: Si # 51
    coordinates: [  0.235454160000000,  0.735454160000000,  0.000000000000000 ]
    mass: 28.085500
    reduced_to: 49
  - symbol: Si # 52
    coordinates: [  0.735454160000000,  0.735454160000000,  0.000000000000000 ]
    mass: 28.085500
    reduced_to: 49
  - symbol: Si # 53
    coordinates: [  0.235454160000000,  0.235454160000000,  0.500000000000000 ]
    mass: 28.085500
    reduced_to: 49
  - symbol: Si # 54
    coordinates: [  0.735454160000000,  0.235454160000000,  0.500000000000000 ]
    mass: 28.085500
    reduced_to: 49
  - symbol: Si # 55
    coordinates: [  0.235454160000000,  0.735454160000000,  0.500000000000000 ]
    mass: 28.085500
    reduced_to: 49
  - symbol: Si # 56
    coordinates: [  0.735454160000000,  0.735454160000000,  0.500000000000000 ]
    mass: 28.085500
    reduced_to: 49
  - symbol: Si # 57
    coordinates: [  0.264545840000000,  0.000000000000000,  0.166666665000000 ]
    mass: 28.085500
    reduced_to: 57
  - symbol: Si # 58
    coordinates: [  0.764545840000000,  0.000000000000000,  0.166666665000000 ]
    mass: 28.085500
    reduced_to: 57
  - symbol: Si # 59
    coordinates: [  0.264545840000000,  0.500000000000000,  0.166666665000000 ]
    mass: 28.085500
    reduced_to: 57
  - symbol: Si # 60
    coordinates: [  0.764545840000000,  0.500000000000000,  0.166666665000000 ]
    mass: 28.085500
    reduced_to: 57
  - symbol: Si # 61
    coordinates: [  0.264545840000000,  0.000000000000000,  0.666666665000000 ]
    mass: 28.085500
    reduced_to: 57
  - symbol: Si # 62
    coordinates: [  0.764545840000000,  0.000000000000000,  0.666666665000000 ]
    mass: 28.085500
    reduced_to: 57
  - symbol: Si # 63
    coordinates: [  0.264545840000000,  0.500000000000000,  0.666666665000000 ]
    mass: 28.085500
    reduced_to: 57
  - symbol: Si # 64
    coordinates: [  0.764545840000000,  0.500000000000000,  0.666666665000000 ]
    mass: 28.085500
    reduced_to: 57
  - symbol: Si # 65
    coordinates: [  0.000000000000000,  0.264545840000000,  0.333333335000000 ]
    mass: 28.085500
    reduced_to: 65
  - symbol: Si # 66
    coordinates: [  0.500000000000000,  0.264545840000000,  0.333333335000000 ]
    mass: 28.085500
    reduced_to: 65
  - symbol: Si # 67
    coordinates: [  0.000000000000000,  0.764545840000000,  0.333333335000000 ]
    mass: 28.085500
    reduced_to: 65
  - symbol: Si # 68
    coordinates: [  0.500000000000000,  0.764545840000000,  0.333333335000000 ]
    mass: 28.085500
    reduced_to: 65
  - symbol: Si # 69
    coordinates: [  0.000000000000000,  0.264545840000000,  0.833333335000000 ]
    mass: 28.085500
    reduced_to: 65
  - symbol: Si # 70
    coordinates: [  0.500000000000000,  0.264545840000000,  0.833333335000000 ]
    mass: 28.085500
    reduced_to: 65
  - symbol: Si # 71
    coordinates: [  0.000000000000000,  0.764545840000000,  0.833333335000000 ]
    mass: 28.085500
    reduced_to: 65
  - symbol: Si # 72
    coordinates: [  0.500000000000000,  0.764545840000000,  0.833333335000000 ]
    mass: 28.085500
    reduced_to: 65

born_effective_charge:
- # 1 (O)
  - [ -1.308960850000000,  0.520792740000000,  0.344294790000000 ]
  - [  0.468787370000000, -2.002893870000000, -0.717259350000000 ]
  - [  0.286378660000000, -0.755287000000000, -1.714462910000000 ]
- # 2 (O)
  - [ -2.257911372154739,  0.079089469151319, -0.793312213620100 ]
  - [  0.027084099746053, -1.053943347845261,  0.060461640670107 ]
  - [ -0.797287058707780,  0.129632305171285, -1.714462910000000 ]
- # 3 (O)
  - [ -1.400909857845261, -0.521874155098122,  0.449017423620100 ]
  - [ -0.573879523694216, -1.910944862154739,  0.656797709329893 ]
  - [  0.510908398707780,  0.625654694828715, -1.714462910000000 ]
- # 4 (O)
  - [ -2.257911372154739, -0.079089469151319,  0.793312213620100 ]
  - [ -0.027084099746053, -1.053943347845261,  0.060461640670107 ]
  - [  0.797287058707780,  0.129632305171285, -1.714462910000000 ]
- # 5 (O)
  - [ -1.308960850000000, -0.520792740000000, -0.344294790000000 ]
  - [ -0.468787370000000, -2.002893870000000, -0.717259350000000 ]
  - [ -0.286378660000000, -0.755287000000000, -1.714462910000000 ]
- # 6 (O)
  - [ -1.400909857845261,  0.521874155098122, -0.449017423620100 ]
  - [  0.573879523694216, -1.910944862154739,  0.656797709329893 ]
  - [ -0.510908398707780,  0.625654694828715, -1.714462910000000 ]
- # 7 (Si)
  - [  3.481506370000000, -0.293845290000000, -0.259938110000000 ]
  - [ -0.293845290000000,  3.142203050000000,  0.150075340000000 ]
  - [  0.223091770000000, -0.128802090000000,  3.428925820000000 ]
- # 8 (Si)
  - [  2.972551394077595, -0.000000002156375, -0.000000002009086 ]
  - [ -0.000000002552025,  3.651158025922406, -0.300150676520161 ]
  - [ -0.000000003074566,  0.257604185325305,  3.428925820000000 ]
- # 9 (Si)
  - [  3.481506365922405,  0.293845292749850,  0.259938112009086 ]
  - [  0.293845291958550,  3.142203054077594,  0.150075336520161 ]
  - [ -0.223091766925434, -0.128802095325305,  3.428925820000000 ]

dielectric_constant:
  - [  2.467490400000000,  0.000000000000000,  0.000000000000000 ]
  - [  0.000000000000000,  2.467490400000000,  0.000000000000000 ]
  - [  0.000000000000000,  0.000000000000000,  2.499253280000000 ]

displacements:
- atom:    1
  displacement:
    [   0.0100000000000000,  0.0000000000000000,  0.0000000000000000 ]
  forces:
  - [  -0.1495669300000000,  0.1305885400000000,  0.0804077800000000 ]
  - [   0.0023567600000000, -0.0005209600000000, -0.0000080100000000 ]
  - [   0.0028431800000000, -0.0057894900000000, -0.0013198400000000 ]
  - [  -0.0001712300000000,  0.0012985600000000,  0.0009366100000000 ]
  - [  -0.0007040000000000,  0.0000627400000000, -0.0001678500000000 ]
  - [   0.0012634200000000, -0.0005883800000000, -0.0006350800000000 ]
  - [   0.0006132700000000, -0.0011414300000000, -0.0004957900000000 ]
  - [   0.0001864700000000,  0.0002121100000000,  0.0001597600000000 ]
  - [  -0.0025156800000000,  0.0013146500000000, -0.0021753900000000 ]
  - [   0.0012060300000000, -0.0003352500000000,  0.0010502200000000 ]
  - [   0.0002379700000000, -0.0008708200000000,  0.0002424900000000 ]
  - [  -0.0009724400000000, -0.0000503800000000, -0.0003814200000000 ]
  - [   0.0007982200000000,  0.0066602400000000,  0.0121461800000000 ]
  - [   0.0030063000000000, -0.0006527400000000,  0.0006379500000000 ]
  - [   0.0022288800000000, -0.0017375400000000,  0.0018248400000000 ]
  - [  -0.0013398300000000,  0.0011265400000000, -0.0006784400000000 ]
  - [   0.0106670300000000, -0.0008919100000000, -0.0175929100000000 ]
  - [   0.0022244800000000,  0.0009308500000000,  0.0011347200000000 ]
  - [  -0.0004213500000000, -0.0013176000000000,  0.0015461200000000 ]
  - [   0.0003682200000000,  0.0006625100000000,  0.0000284500000000 ]
  - [  -0.0005434500000000, -0.0001914600000000,  0.0011348500000000 ]
  - [   0.0019498700000000,  0.0017388200000000, -0.0016031000000000 ]
  - [  -0.0002392400000000, -0.0004985500000000,  0.0001562100000000 ]
  - [   0.0000162400000000,  0.0007474600000000, -0.0001494800000000 ]
  - [  -0.0019208100000000, -0.0000318100000000,  0.0022052400000000 ]
  - [   0.0027469700000000,  0.0014566000000000, -0.0022209300000000 ]
  - [  -0.0003253700000000, -0.0003135300000000, -0.0003380700000000 ]
  - [  -0.0005823400000000,  0.0003089800000000,  0.0000949100000000 ]
  - [   0.0063055300000000, -0.0060797500000000, -0.0184177600000000 ]
  - [   0.0016844600000000,  0.0004586200000000, -0.0002554600000000 ]
  - [  -0.0015051700000000, -0.0013719100000000,  0.0017216100000000 ]
  - [   0.0000655600000000,  0.0005510100000000, -0.0004866700000000 ]
  - [   0.0019230400000000, -0.0017298100000000,  0.0017036200000000 ]
  - [   0.0019185600000000,  0.0036393100000000,  0.0002977100000000 ]
  - [  -0.0042778200000000,  0.0007030100000000,  0.0004167600000000 ]
  - [   0.0016415400000000,  0.0003746500000000,  0.0002895300000000 ]
  - [   0.0012741600000000, -0.0019675300000000, -0.0024193400000000 ]
  - [   0.0012769100000000,  0.0009994300000000,  0.0012879900000000 ]
  - [  -0.0003634000000000,  0.0003554100000000, -0.0002830900000000 ]
  - [   0.0009057200000000,  0.0004523500000000,  0.0000157100000000 ]
  - [  -0.0003359500000000, -0.0152491900000000, -0.0008622100000000 ]
  - [   0.0010857100000000, -0.0005216300000000,  0.0005489200000000 ]
  - [   0.0120059600000000, -0.0222406700000000,  0.0062200200000000 ]
  - [   0.0018225900000000,  0.0014133300000000, -0.0001420100000000 ]
  - [  -0.0007936900000000, -0.0004573900000000, -0.0004599200000000 ]
  - [   0.0005473000000000, -0.0001892100000000, -0.0003025100000000 ]
  - [  -0.0001762500000000, -0.0008141900000000, -0.0006296600000000 ]
  - [  -0.0000194100000000,  0.0000808600000000, -0.0004010400000000 ]
  - [   0.0294626900000000, -0.0069435300000000, -0.0053743300000000 ]
  - [  -0.0046582100000000, -0.0004672400000000, -0.0004353900000000 ]
  - [  -0.0037310800000000,  0.0101412800000000, -0.0048259800000000 ]
  - [  -0.0000533100000000, -0.0037459800000000,  0.0006086800000000 ]
  - [   0.0038215700000000, -0.0002529300000000,  0.0002687000000000 ]
  - [  -0.0030784300000000, -0.0004639500000000,  0.0013464600000000 ]
  - [  -0.0008723400000000,  0.0011964900000000,  0.0010124700000000 ]
  - [   0.0004490900000000, -0.0011118000000000,  0.0000592200000000 ]
  - [  -0.0041137200000000,  0.0075659600000000, -0.0038942800000000 ]
  - [  -0.0008069500000000, -0.0026595500000000, -0.0017705700000000 ]
  - [   0.1068311800000000, -0.0907248800000000, -0.0542169000000000 ]
  - [  -0.0046682500000000, -0.0007582100000000, -0.0004470600000000 ]
  - [   0.0012720100000000,  0.0021531000000000,  0.0014229400000000 ]
  - [  -0.0001956900000000, -0.0010889400000000, -0.0000476200000000 ]
  - [   0.0022878200000000, -0.0001653100000000,  0.0001544800000000 ]
  - [  -0.0011640700000000, -0.0007107000000000,  0.0014826900000000 ]
  - [  -0.0040222400000000, -0.0108280300000000,  0.0063030000000000 ]
  - [  -0.0023979200000000,  0.0008708900000000, -0.0052549600000000 ]
  - [  -0.0004317700000000,  0.0016377900000000, -0.0009427300000000 ]
  - [   0.0002609700000000,  0.0013154100000000,  0.0012315300000000 ]
  - [  -0.0036768600000000,  0.0020594400000000, -0.0039066800000000 ]
  - [  -0.0097236200000000,  0.0014032600000000,  0.0040700600000000 ]
  - [  -0.0014276400000000,  0.0013587600000000, -0.0007790500000000 ]
  - [   0.0022407700000000, -0.0003647400000000,  0.0001530900000000 ]
- atom:    1
  displacement:
    [  -0.0100000000000000,  0.0000000000000000,  0.0000000000000000 ]
  forces:
  - [   0.1523078000000000, -0.1361023800000000, -0.0835317300000000 ]
  - [  -0.0016491200000000,  0.0000785600000000,  0.0001691300000000 ]
  - [  -0.0021628100000000,  0.0053905000000000,  0.0014886900000000 ]
  - [   0.0008716900000000, -0.0017317800000000, -0.0007748600000000 ]
  - [   0.0014009800000000, -0.0004967400000000,  0.0003401400000000 ]
  - [  -0.0005742800000000,  0.0001554600000000,  0.0008019600000000 ]
  - [   0.0000775200000000,  0.0007090100000000,  0.0006599800000000 ]
  - [   0.0005183900000000, -0.0006456000000000,  0.0000115300000000 ]
  - [   0.0017978200000000, -0.0017196800000000,  0.0023578000000000 ]
  - [  -0.0019297600000000, -0.0000559700000000, -0.0008792100000000 ]
  - [  -0.0009607200000000,  0.0004888100000000, -0.0000753700000000 ]
  - [   0.0002506600000000, -0.0003339900000000,  0.0005469500000000 ]
  - [  -0.0014579100000000, -0.0070914500000000, -0.0119914400000000 ]
  - [  -0.0037371000000000,  0.0002726100000000, -0.0004840900000000 ]
  - [  -0.0029662800000000,  0.0013593100000000, -0.0016705800000000 ]
  - [   0.0006175400000000, -0.0015121900000000,  0.0008408900000000 ]
  - [  -0.0107999300000000,  0.0017694900000000,  0.0180532900000000 ]
  - [  -0.0021866700000000, -0.0001068400000000, -0.0009598600000000 ]
  - [   0.0004438300000000,  0.0021491300000000, -0.0013886500000000 ]
  - [  -0.0003443600000000,  0.0001539300000000,  0.0001363800000000 ]
  - [   0.0005689600000000,  0.0009961700000000, -0.0009547500000000 ]
  - [  -0.0019323600000000, -0.0009231300000000,  0.0017773400000000 ]
  - [   0.0002635800000000,  0.0013238600000000,  0.0000112500000000 ]
  - [   0.0000116200000000,  0.0000774600000000,  0.0003158200000000 ]
  - [   0.0012015200000000,  0.0004021700000000, -0.0023548700000000 ]
  - [  -0.0034839200000000, -0.0010864200000000,  0.0020714800000000 ]
  - [  -0.0003967800000000,  0.0007000500000000,  0.0001726700000000 ]
  - [  -0.0001455000000000,  0.0000795800000000, -0.0002581000000000 ]
  - [  -0.0070923300000000,  0.0064558100000000,  0.0181641400000000 ]
  - [  -0.0023944700000000, -0.0000780400000000,  0.0000864700000000 ]
  - [   0.0007869100000000,  0.0017687000000000, -0.0019006900000000 ]
  - [  -0.0007875800000000, -0.0001674000000000,  0.0003261000000000 ]
  - [  -0.0012245600000000,  0.0021389800000000, -0.0018748300000000 ]
  - [  -0.0012283000000000, -0.0032288200000000, -0.0004691300000000 ]
  - [   0.0050127300000000, -0.0002782000000000, -0.0006086300000000 ]
  - [  -0.0009493000000000,  0.0000630300000000, -0.0004512100000000 ]
  - [  -0.0005777400000000,  0.0024058800000000,  0.0022622200000000 ]
  - [  -0.0005755700000000, -0.0005588600000000, -0.0014309900000000 ]
  - [   0.0010612900000000,  0.0000740400000000,  0.0001186100000000 ]
  - [  -0.0001998300000000, -0.0000197000000000, -0.0001873100000000 ]
  - [   0.0002769100000000,  0.0144321800000000,  0.0006770800000000 ]
  - [  -0.0010591100000000, -0.0002956500000000, -0.0007203200000000 ]
  - [  -0.0121366600000000,  0.0217276000000000, -0.0064761800000000 ]
  - [  -0.0017897200000000, -0.0022202400000000, -0.0000327500000000 ]
  - [   0.0008237100000000, -0.0003621300000000,  0.0003004600000000 ]
  - [  -0.0005240600000000, -0.0006432100000000,  0.0001367100000000 ]
  - [   0.0002041000000000, -0.0000042600000000,  0.0004720200000000 ]
  - [   0.0000509500000000, -0.0008896800000000,  0.0002446200000000 ]
  - [  -0.0299802800000000,  0.0069837400000000,  0.0061865000000000 ]
  - [   0.0042607600000000, -0.0002094800000000,  0.0004558400000000 ]
  - [   0.0033538100000000, -0.0108582900000000,  0.0048415900000000 ]
  - [  -0.0003386600000000,  0.0030474900000000, -0.0006014900000000 ]
  - [  -0.0042247300000000, -0.0004272300000000, -0.0002844300000000 ]
  - [   0.0026892100000000, -0.0002115000000000, -0.0013627200000000 ]
  - [   0.0004770500000000, -0.0018867100000000, -0.0010194700000000 ]
  - [  -0.0008426100000000,  0.0004248800000000, -0.0000638900000000 ]
  - [   0.0049554800000000, -0.0075864900000000,  0.0039558400000000 ]
  - [   0.0015985200000000,  0.0026694700000000,  0.0017849800000000 ]
  - [  -0.1076585500000000,  0.0947352900000000,  0.0566237400000000 ]
  - [   0.0054482600000000,  0.0007548500000000,  0.0004533000000000 ]
  - [  -0.0004835000000000, -0.0021598000000000, -0.0014323300000000 ]
  - [   0.0009781800000000,  0.0010817200000000,  0.0000418500000000 ]
  - [  -0.0014951000000000,  0.0001739100000000, -0.0001692300000000 ]
  - [   0.0019560400000000,  0.0007129700000000, -0.0014915400000000 ]
  - [   0.0036432500000000,  0.0115858400000000, -0.0063289700000000 ]
  - [   0.0019964600000000, -0.0001715100000000,  0.0052339700000000 ]
  - [   0.0000382400000000, -0.0009662500000000,  0.0009378000000000 ]
  - [  -0.0006526900000000, -0.0006238500000000, -0.0012237400000000 ]
  - [   0.0032283300000000, -0.0013415500000000,  0.0038512500000000 ]
  - [   0.0093795800000000, -0.0007165300000000, -0.0040888900000000 ]
  - [   0.0010371600000000, -0.0006829900000000,  0.0007823800000000 ]
  - [  -0.0026459600000000,  0.0010521000000000, -0.0001505300000000 ]
- atom:    1
  displacement:
    [  -0.0049999999974754,  0.0086602540393020,  0.0000000000000000 ]
  forces:
  - [   0.1956869700000000, -0.3641647400000000, -0.2408053500000000 ]
  - [  -0.0009065200000000, -0.0011647500000000, -0.0008092600000000 ]
  - [  -0.0057376200000000,  0.0106709800000000,  0.0017704400000000 ]
  - [   0.0019278800000000,  0.0002972100000000, -0.0008159300000000 ]
  - [   0.0011202600000000, -0.0008377200000000,  0.0009515700000000 ]
  - [  -0.0004311700000000,  0.0000447600000000,  0.0010998500000000 ]
  - [  -0.0005862400000000,  0.0013611600000000,  0.0016158100000000 ]
  - [   0.0008091400000000,  0.0004283900000000,  0.0009231700000000 ]
  - [   0.0016532600000000, -0.0022783100000000,  0.0023494500000000 ]
  - [  -0.0018651400000000, -0.0003831100000000, -0.0007721100000000 ]
  - [  -0.0015422700000000,  0.0008196100000000, -0.0002398100000000 ]
  - [   0.0026821400000000,  0.0005095200000000,  0.0034246000000000 ]
  - [   0.0116973000000000, -0.0021804300000000,  0.0101091100000000 ]
  - [  -0.0043119100000000,  0.0001017800000000, -0.0007663400000000 ]
  - [  -0.0047784200000000,  0.0028064100000000, -0.0029128400000000 ]
  - [   0.0015131400000000,  0.0005126500000000, -0.0010211800000000 ]
  - [  -0.0131319500000000, -0.0059098000000000,  0.0165275800000000 ]
  - [  -0.0008847500000000, -0.0012309000000000, -0.0003173500000000 ]
  - [   0.0005793200000000,  0.0046365600000000, -0.0038771400000000 ]
  - [   0.0018189500000000,  0.0044686200000000, -0.0006108100000000 ]
  - [   0.0001513200000000, -0.0020101300000000,  0.0013357300000000 ]
  - [  -0.0024146700000000, -0.0016927100000000,  0.0023427900000000 ]
  - [  -0.0000563300000000,  0.0021943500000000,  0.0005406300000000 ]
  - [   0.0005948700000000,  0.0014462100000000, -0.0004459400000000 ]
  - [   0.0009405000000000, -0.0008536600000000, -0.0017765000000000 ]
  - [  -0.0033792200000000, -0.0015077300000000,  0.0021400200000000 ]
  - [  -0.0033913900000000,  0.0020563900000000,  0.0035855300000000 ]
  - [   0.0007652900000000,  0.0005965800000000, -0.0004459400000000 ]
  - [  -0.0110188800000000,  0.0018503000000000,  0.0197388300000000 ]
  - [   0.0004216900000000, -0.0006837300000000, -0.0003822200000000 ]
  - [   0.0004188300000000,  0.0030057200000000, -0.0028975700000000 ]
  - [   0.0002520700000000,  0.0010468500000000, -0.0003373000000000 ]
  - [  -0.0034023300000000,  0.0003921200000000, -0.0043838700000000 ]
  - [   0.0012468700000000, -0.0022932600000000, -0.0020911700000000 ]
  - [   0.0022668200000000,  0.0237229000000000,  0.0183016300000000 ]
  - [  -0.0004373800000000,  0.0009566500000000,  0.0000277400000000 ]
  - [  -0.0007861300000000,  0.0028282700000000,  0.0028902400000000 ]
  - [   0.0017947700000000,  0.0013489800000000,  0.0021224300000000 ]
  - [   0.0005871400000000, -0.0006254100000000, -0.0004309600000000 ]
  - [  -0.0001284600000000, -0.0000006300000000, -0.0001136900000000 ]
  - [  -0.0131130500000000,  0.0358613300000000,  0.0019878900000000 ]
  - [  -0.0006438000000000,  0.0007048000000000, -0.0015638000000000 ]
  - [  -0.0257744000000000,  0.0291952500000000, -0.0103306500000000 ]
  - [   0.0003930100000000, -0.0014169300000000, -0.0003530600000000 ]
  - [   0.0006861100000000, -0.0005039700000000,  0.0007206200000000 ]