nqpoint: 4      
natom:   8      
reciprocal_lattice:
- [   0.17573761,   0.00000000,   0.00000000 ] # a*
- [   0.00000000,   0.17573761,   0.00000000 ] # b*
- [   0.00000000,   0.00000000,   0.17573761 ] # c*
phonon:
- q-position: [    0.0000000,    0.0000000,    0.0000000 ]
  band:
  - # 1
    frequency:   -0.0370089502
    eigenvector:
    - # atom 1
      - [  0.31188307607107,  0.00000000000000 ]
      - [  0.00322049264336,  0.00000000000000 ]
      - [ -0.05514909440199,  0.00000000000000 ]
    - # atom 2
      - [  0.31188307607107,  0.00000000000000 ]
      - [  0.00322049264336,  0.00000000000000 ]
      - [ -0.05514909440199,  0.00000000000000 ]
    - # atom 3
      - [  0.31188307607107,  0.00000000000000 ]
      - [  0.00322049264336,  0.00000000000000 ]
      - [ -0.05514909440199,  0.00000000000000 ]
    - # atom 4
      - [  0.31188307607107,  0.00000000000000 ]
      - [  0.00322049264336,  0.00000000000000 ]
      - [ -0.05514909440199,  0.00000000000000 ]
    - # atom 5
      - [  0.38095145848016,  0.00000000000000 ]
      - [  0.00393369010261,  0.00000000000000 ]
      - [ -0.06736219294409,  0.00000000000000 ]
    - # atom 6
      - [  0.38095145848016,  0.00000000000000 ]
      - [  0.00393369010261,  0.00000000000000 ]
      - [ -0.06736219294409,  0.00000000000000 ]
    - # atom 7
      - [  0.38095145848016,  0.00000000000000 ]
      - [  0.00393369010261,  0.00000000000000 ]
      - [ -0.06736219294409,  0.00000000000000 ]
    - # atom 8
      - [  0.38095145848016,  0.00000000000000 ]
      - [  0.00393369010261,  0.00000000000000 ]
      - [ -0.06736219294409,  0.00000000000000 ]
  - # 2
    frequency:   -0.0370089502
    eigenvector:
    - # atom 1
      - [ -0.05523875170152,  0.00000000000000 ]
      - [  0.01423761692080,  0.00000000000000 ]
      - [ -0.31155869094065,  0.00000000000000 ]
    - # atom 2
      - [ -0.05523875170152,  0.00000000000000 ]
      - [  0.01423761692080,  0.00000000000000 ]
      - [ -0.31155869094065,  0.00000000000000 ]
    - # atom 3
      - [ -0.05523875170152,  0.00000000000000 ]
      - [  0.01423761692080,  0.00000000000000 ]
      - [ -0.31155869094065,  0.00000000000000 ]
    - # atom 4
      - [ -0.05523875170152,  0.00000000000000 ]
      - [  0.01423761692080,  0.00000000000000 ]
      - [ -0.31155869094065,  0.00000000000000 ]
    - # atom 5
      - [ -0.06747170539168,  0.00000000000000 ]
      - [  0.01739062279233,  0.00000000000000 ]
      - [ -0.38055523631223,  0.00000000000000 ]
    - # atom 6
      - [ -0.06747170539168,  0.00000000000000 ]
      - [  0.01739062279233,  0.00000000000000 ]
      - [ -0.38055523631223,  0.00000000000000 ]
    - # atom 7
      - [ -0.06747170539168,  0.00000000000000 ]
      - [  0.01739062279232,  0.00000000000000 ]
      - [ -0.38055523631223,  0.00000000000000 ]
    - # atom 8
      - [ -0.06747170539168,  0.00000000000000 ]
      - [  0.01739062279233,  0.00000000000000 ]
      - [ -0.38055523631223,  0.00000000000000 ]
  - # 3
    frequency:   -0.0370089502
    eigenvector:
    - # atom 1
      - [ -0.00068883719587,  0.00000000000000 ]
      - [  0.31640127372899,  0.00000000000000 ]
      - [  0.01458104289024,  0.00000000000000 ]
    - # atom 2
      - [ -0.00068883719587,  0.00000000000000 ]
      - [  0.31640127372899,  0.00000000000000 ]
      - [  0.01458104289024,  0.00000000000000 ]
    - # atom 3
      - [ -0.00068883719587,  0.00000000000000 ]
      - [  0.31640127372899,  0.00000000000000 ]
      - [  0.01458104289024,  0.00000000000000 ]
    - # atom 4
      - [ -0.00068883719587,  0.00000000000000 ]
      - [  0.31640127372899,  0.00000000000000 ]
      - [  0.01458104289024,  0.00000000000000 ]
    - # atom 5
      - [ -0.00084138433457,  0.00000000000000 ]
      - [  0.38647023817533,  0.00000000000000 ]
      - [  0.01781010250756,  0.00000000000000 ]
    - # atom 6
      - [ -0.00084138433457,  0.00000000000000 ]
      - [  0.38647023817533,  0.00000000000000 ]
      - [  0.01781010250756,  0.00000000000000 ]
    - # atom 7
      - [ -0.00084138433457,  0.00000000000000 ]
      - [  0.38647023817533,  0.00000000000000 ]
      - [  0.01781010250756,  0.00000000000000 ]
    - # atom 8
      - [ -0.00084138433457,  0.00000000000000 ]
      - [  0.38647023817533,  0.00000000000000 ]
      - [  0.01781010250756,  0.00000000000000 ]
  - # 4
    frequency:    2.4138202845
    eigenvector:
    - # atom 1
      - [  0.00000000000000,  0.00000000000000 ]
      - [ -0.27997919533995,  0.00000000000000 ]
      - [ -0.02712998579293,  0.00000000000000 ]
    - # atom 2
      - [ -0.00000000000000,  0.00000000000000 ]
      - [  0.21295725942088,  0.00000000000000 ]
      - [ -0.22972973025343,  0.00000000000000 ]
    - # atom 3
      - [ -0.25287055237118,  0.00000000000000 ]
      - [  0.27997919533995,  0.00000000000000 ]
      - [  0.22972973025343,  0.00000000000000 ]
    - # atom 4
      - [  0.25287055237118,  0.00000000000000 ]
      - [ -0.21295725942088,  0.00000000000000 ]
      - [  0.02712998579293,  0.00000000000000 ]
    - # atom 5
      - [ -0.00000000000000,  0.00000000000000 ]
      - [  0.29002063988755,  0.00000000000000 ]
      - [  0.02810300183288,  0.00000000000000 ]
    - # atom 6
      - [  0.00000000000000,  0.00000000000000 ]
      - [ -0.22059496446138,  0.00000000000000 ]
      - [  0.23796897940362,  0.00000000000000 ]
    - # atom 7
      - [  0.26193974633851,  0.00000000000000 ]
      - [ -0.29002063988755,  0.00000000000000 ]
      - [ -0.23796897940362,  0.00000000000000 ]
    - # atom 8
      - [ -0.26193974633851,  0.00000000000000 ]
      - [  0.22059496446138,  0.00000000000000 ]
      - [ -0.02810300183288,  0.00000000000000 ]
  - # 5
    frequency:    2.4138202845
    eigenvector:
    - # atom 1
      - [  0.04507065377566,  0.00000000000000 ]
      - [ -0.34318237785841,  0.00000000000000 ]
      - [  0.10824312352348,  0.00000000000000 ]
    - # atom 2
      - [ -0.04507065377566,  0.00000000000000 ]
      - [ -0.25651478775470,  0.00000000000000 ]
      - [  0.20647138332276,  0.00000000000000 ]
    - # atom 3
      - [ -0.03524336744283,  0.00000000000000 ]
      - [  0.34318237785841,  0.00000000000000 ]
      - [ -0.20647138332276,  0.00000000000000 ]
    - # atom 4
      - [  0.03524336744283,  0.00000000000000 ]
      - [  0.25651478775470,  0.00000000000000 ]
      - [ -0.10824312352347,  0.00000000000000 ]
    - # atom 5
      - [ -0.04668711127731,  0.00000000000000 ]
      - [  0.35549060244915,  0.00000000000000 ]
      - [ -0.11212525955576,  0.00000000000000 ]
    - # atom 6
      - [  0.04668711127731,  0.00000000000000 ]
      - [  0.26571468210310,  0.00000000000000 ]
      - [ -0.21387647263229,  0.00000000000000 ]
    - # atom 7
      - [  0.03650736964634,  0.00000000000000 ]
      - [ -0.35549060244915,  0.00000000000000 ]
      - [  0.21387647263229,  0.00000000000000 ]
    - # atom 8
      - [ -0.03650736964634,  0.00000000000000 ]
      - [ -0.26571468210310,  0.00000000000000 ]
      - [  0.11212525955576,  0.00000000000000 ]
  - # 6
    frequency:    2.4138202845
    eigenvector:
    - # atom 1
      - [  0.02312810405060,  0.00000000000000 ]
      - [ -0.16277909179199,  0.00000000000000 ]
      - [  0.16414862489094,  0.00000000000000 ]
    - # atom 2
      - [ -0.02312810405060,  0.00000000000000 ]
      - [  0.13781862356779,  0.00000000000000 ]
      - [ -0.12369099887572,  0.00000000000000 ]
    - # atom 3
      - [  0.39105536223279,  0.00000000000000 ]
      - [  0.16277909179199,  0.00000000000000 ]
      - [  0.12369099887572,  0.00000000000000 ]
    - # atom 4
      - [ -0.39105536223279,  0.00000000000000 ]
      - [ -0.13781862356779,  0.00000000000000 ]
      - [ -0.16414862489094,  0.00000000000000 ]
    - # atom 5
      - [ -0.02395759273469,  0.00000000000000 ]
      - [  0.16861715851603,  0.00000000000000 ]
      - [ -0.17003580987412,  0.00000000000000 ]
    - # atom 6
      - [  0.02395759273469,  0.00000000000000 ]
      - [ -0.14276148392747,  0.00000000000000 ]
      - [  0.12812717244475,  0.00000000000000 ]
    - # atom 7
      - [ -0.40508054981908,  0.00000000000000 ]
      - [ -0.16861715851603,  0.00000000000000 ]
      - [ -0.12812717244475,  0.00000000000000 ]
    - # atom 8
      - [  0.40508054981908,  0.00000000000000 ]
      - [  0.14276148392747,  0.00000000000000 ]
      - [  0.17003580987412,  0.00000000000000 ]
  - # 7
    frequency:    2.4138202845
    eigenvector:
    - # atom 1
      - [ -0.00000000000000,  0.00000000000000 ]
      - [  0.12270119761954,  0.00000000000000 ]
      - [  0.44592031222391,  0.00000000000000 ]
    - # atom 2
      - [  0.00000000000000,  0.00000000000000 ]
      - [  0.06280763447454,  0.00000000000000 ]
      - [  0.02240025514493,  0.00000000000000 ]
    - # atom 3
      - [ -0.15115345309059,  0.00000000000000 ]
      - [ -0.12270119761954,  0.00000000000000 ]
      - [ -0.02240025514493,  0.00000000000000 ]
    - # atom 4
      - [  0.15115345309059,  0.00000000000000 ]
      - [ -0.06280763447454,  0.00000000000000 ]
      - [ -0.44592031222391,  0.00000000000000 ]
    - # atom 5
      - [  0.00000000000000,  0.00000000000000 ]
      - [ -0.12710187199938,  0.00000000000000 ]
      - [ -0.46191322942052,  0.00000000000000 ]
    - # atom 6
      - [  0.00000000000000,  0.00000000000000 ]
      - [ -0.06506022820022,  0.00000000000000 ]
      - [ -0.02320363955218,  0.00000000000000 ]
    - # atom 7
      - [  0.15657456666850,  0.00000000000000 ]
      - [  0.12710187199938,  0.00000000000000 ]
      - [  0.02320363955218,  0.00000000000000 ]
    - # atom 8
      - [ -0.15657456666850,  0.00000000000000 ]
      - [  0.06506022820022,  0.00000000000000 ]
      - [  0.46191322942052,  0.00000000000000 ]
  - # 8
    frequency:    2.4138202845
    eigenvector:
    - # atom 1
      - [ -0.46674493567127,  0.00000000000000 ]
      - [ -0.05057819782515,  0.00000000000000 ]
      - [  0.00181593308658,  0.00000000000000 ]
    - # atom 2
      - [  0.46674493567127,  0.00000000000000 ]
      - [  0.08005797875872,  0.00000000000000 ]
      - [  0.11892087233680,  0.00000000000000 ]
    - # atom 3
      - [  0.01518897586837,  0.00000000000000 ]
      - [  0.05057819782515,  0.00000000000000 ]
      - [ -0.11892087233680,  0.00000000000000 ]
    - # atom 4
      - [ -0.01518897586837,  0.00000000000000 ]
      - [ -0.08005797875872,  0.00000000000000 ]
      - [ -0.00181593308658,  0.00000000000000 ]
    - # atom 5
      - [  0.48348472729659,  0.00000000000000 ]
      - [  0.05239218321132,  0.00000000000000 ]
      - [ -0.00188106146646,  0.00000000000000 ]
    - # atom 6
      - [ -0.48348472729659,  0.00000000000000 ]
      - [ -0.08292925550956,  0.00000000000000 ]
      - [ -0.12318596547585,  0.00000000000000 ]
    - # atom 7
      - [ -0.01573372798373,  0.00000000000000 ]
      - [ -0.05239218321132,  0.00000000000000 ]
      - [  0.12318596547585,  0.00000000000000 ]
    - # atom 8
      - [  0.01573372798373,  0.00000000000000 ]
      - [  0.08292925550956,  0.00000000000000 ]
      - [  0.00188106146646,  0.00000000000000 ]
  - # 9
    frequency:    2.4138202845
    eigenvector:
    - # atom 1
      - [  0.14414346155022,  0.00000000000000 ]
      - [ -0.03035095547605,  0.00000000000000 ]
      - [ -0.05430324181410,  0.00000000000000 ]
    - # atom 2
      - [ -0.14414346155022,  0.00000000000000 ]
      - [  0.31732595689759,  0.00000000000000 ]
      - [  0.34035989174239,  0.00000000000000 ]
    - # atom 3
      - [ -0.00254295218683,  0.00000000000000 ]
      - [  0.03035095547605,  0.00000000000000 ]
      - [ -0.34035989174240,  0.00000000000000 ]
    - # atom 4
      - [  0.00254295218683,  0.00000000000000 ]
      - [ -0.31732595689759,  0.00000000000000 ]
      - [  0.05430324181410,  0.00000000000000 ]
    - # atom 5
      - [ -0.14931316201421,  0.00000000000000 ]
      - [  0.03143949148677,  0.00000000000000 ]
      - [  0.05625082577929,  0.00000000000000 ]
    - # atom 6
      - [  0.14931316201421,  0.00000000000000 ]
      - [ -0.32870684180881,  0.00000000000000 ]
      - [ -0.35256688796227,  0.00000000000000 ]
    - # atom 7
      - [  0.00263415508261,  0.00000000000000 ]
      - [ -0.03143949148677,  0.00000000000000 ]
      - [  0.35256688796227,  0.00000000000000 ]
    - # atom 8
      - [ -0.00263415508261,  0.00000000000000 ]
      - [  0.32870684180881,  0.00000000000000 ]
      - [ -0.05625082577929,  0.00000000000000 ]
  - # 10
    frequency:    4.0662471864
    eigenvector:
    - # atom 1
      - [ -0.04506031101960,  0.00000000000000 ]
      - [  0.39352086564921,  0.00000000000000 ]
      - [  0.01277171805870,  0.00000000000000 ]
    - # atom 2
      - [ -0.04506031101960,  0.00000000000000 ]
      - [ -0.39352086564921,  0.00000000000000 ]
      - [ -0.01277171805870,  0.00000000000000 ]
    - # atom 3
      - [  0.04506031101960,  0.00000000000000 ]
      - [  0.39352086564921,  0.00000000000000 ]
      - [ -0.01277171805870,  0.00000000000000 ]
    - # atom 4
      - [  0.04506031101960,  0.00000000000000 ]
      - [ -0.39352086564921,  0.00000000000000 ]
      - [  0.01277171805870,  0.00000000000000 ]
    - # atom 5
      - [ -0.03466503599083,  0.00000000000000 ]
      - [  0.30273681344406,  0.00000000000000 ]
      - [  0.00982532202179,  0.00000000000000 ]
    - # atom 6
      - [ -0.03466503599083,  0.00000000000000 ]
      - [ -0.30273681344406,  0.00000000000000 ]
      - [ -0.00982532202179,  0.00000000000000 ]
    - # atom 7
      - [  0.03466503599083,  0.00000000000000 ]
      - [  0.30273681344406,  0.00000000000000 ]
      - [ -0.00982532202179,  0.00000000000000 ]
    - # atom 8
      - [  0.03466503599083,  0.00000000000000 ]
      - [ -0.30273681344406,  0.00000000000000 ]
      - [  0.00982532202179,  0.00000000000000 ]
  - # 11
    frequency:    4.0662471864
    eigenvector:
    - # atom 1
      - [ -0.00095302957018,  0.00000000000000 ]
      - [ -0.01296406080433,  0.00000000000000 ]
      - [  0.39608489617096,  0.00000000000000 ]
    - # atom 2
      - [ -0.00095302957018,  0.00000000000000 ]
      - [  0.01296406080433,  0.00000000000000 ]
      - [ -0.39608489617096,  0.00000000000000 ]
    - # atom 3
      - [  0.00095302957018,  0.00000000000000 ]
      - [ -0.01296406080433,  0.00000000000000 ]
      - [ -0.39608489617096,  0.00000000000000 ]
    - # atom 4
      - [  0.00095302957018,  0.00000000000000 ]
      - [  0.01296406080433,  0.00000000000000 ]
      - [  0.39608489617096,  0.00000000000000 ]
    - # atom 5
      - [ -0.00073316858235,  0.00000000000000 ]
      - [ -0.00997329188815,  0.00000000000000 ]
      - [  0.30470933001811,  0.00000000000000 ]
    - # atom 6
      - [ -0.00073316858235,  0.00000000000000 ]
      - [  0.00997329188815,  0.00000000000000 ]
      - [ -0.30470933001811,  0.00000000000000 ]
    - # atom 7
      - [  0.00073316858235,  0.00000000000000 ]
      - [ -0.00997329188815,  0.00000000000000 ]
      - [ -0.30470933001811,  0.00000000000000 ]
    - # atom 8
      - [  0.00073316858235,  0.00000000000000 ]
      - [  0.00997329188815,  0.00000000000000 ]
      - [  0.30470933001811,  0.00000000000000 ]
  - # 12
    frequency:    4.0662471864
    eigenvector:
    - # atom 1
      - [  0.39372691071111,  0.00000000000000 ]
      - [  0.04500535011325,  0.00000000000000 ]
      - [  0.00242040404252,  0.00000000000000 ]
    - # atom 2
      - [  0.39372691071111,  0.00000000000000 ]
      - [ -0.04500535011325,  0.00000000000000 ]
      - [ -0.00242040404252,  0.00000000000000 ]
    - # atom 3
      - [ -0.39372691071111,  0.00000000000000 ]
      - [  0.04500535011325,  0.00000000000000 ]
      - [ -0.00242040404252,  0.00000000000000 ]
    - # atom 4
      - [ -0.39372691071111,  0.00000000000000 ]
      - [ -0.04500535011325,  0.00000000000000 ]
      - [  0.00242040404252,  0.00000000000000 ]
    - # atom 5
      - [  0.30289532454451,  0.00000000000000 ]
      - [  0.03462275439637,  0.00000000000000 ]
      - [  0.00186202428141,  0.00000000000000 ]
    - # atom 6
      - [  0.30289532454451,  0.00000000000000 ]
      - [ -0.03462275439637,  0.00000000000000 ]
      - [ -0.00186202428141,  0.00000000000000 ]
    - # atom 7
      - [ -0.30289532454451,  0.00000000000000 ]
      - [  0.03462275439637,  0.00000000000000 ]
      - [ -0.00186202428141,  0.00000000000000 ]
    - # atom 8
      - [ -0.30289532454451,  0.00000000000000 ]
      - [ -0.03462275439637,  0.00000000000000 ]
      - [  0.00186202428141,  0.00000000000000 ]
  - # 13
    frequency:    4.6084532143
    eigenvector:
    - # atom 1
      - [  0.00098490493563,  0.00000000000000 ]
      - [  0.35592850026043,  0.00000000000000 ]
      - [ -0.15162811526513,  0.00000000000000 ]
    - # atom 2
      - [  0.00098490493563,  0.00000000000000 ]
      - [  0.35592850026043,  0.00000000000000 ]
      - [ -0.15162811526513,  0.00000000000000 ]
    - # atom 3
      - [  0.00098490493564,  0.00000000000000 ]
      - [  0.35592850026043,  0.00000000000000 ]
      - [ -0.15162811526513,  0.00000000000000 ]
    - # atom 4
      - [  0.00098490493563,  0.00000000000000 ]
      - [  0.35592850026043,  0.00000000000000 ]
      - [ -0.15162811526513,  0.00000000000000 ]
    - # atom 5
      - [ -0.00080633680257,  0.00000000000000 ]
      - [ -0.29139690386134,  0.00000000000000 ]
      - [  0.12413718849224,  0.00000000000000 ]
    - # atom 6
      - [ -0.00080633680256,  0.00000000000000 ]
      - [ -0.29139690386134,  0.00000000000000 ]
      - [  0.12413718849224,  0.00000000000000 ]
    - # atom 7
      - [ -0.00080633680256,  0.00000000000000 ]
      - [ -0.29139690386135,  0.00000000000000 ]
      - [  0.12413718849224,  0.00000000000000 ]
    - # atom 8
      - [ -0.00080633680257,  0.00000000000000 ]
      - [ -0.29139690386134,  0.00000000000000 ]
      - [  0.12413718849224,  0.00000000000000 ]
  - # 14
    frequency:    4.6084532143
    eigenvector:
    - # atom 1
      - [  0.00001850193267,  0.00000000000000 ]
      - [  0.15162856310168,  0.00000000000000 ]
      - [  0.35592967168195,  0.00000000000000 ]
    - # atom 2
      - [  0.00001850193267,  0.00000000000000 ]
      - [  0.15162856310168,  0.00000000000000 ]
      - [  0.35592967168195,  0.00000000000000 ]
    - # atom 3
      - [  0.00001850193267,  0.00000000000000 ]
      - [  0.15162856310168,  0.00000000000000 ]
      - [  0.35592967168195,  0.00000000000000 ]
    - # atom 4
      - [  0.00001850193267,  0.00000000000000 ]
      - [  0.15162856310168,  0.00000000000000 ]
      - [  0.35592967168195,  0.00000000000000 ]
    - # atom 5
      - [ -0.00001514744083,  0.00000000000000 ]
      - [ -0.12413755513382,  0.00000000000000 ]
      - [ -0.29139786289836,  0.00000000000000 ]
    - # atom 6
      - [ -0.00001514744083,  0.00000000000000 ]
      - [ -0.12413755513382,  0.00000000000000 ]
      - [ -0.29139786289836,  0.00000000000000 ]
    - # atom 7
      - [ -0.00001514744082,  0.00000000000000 ]
      - [ -0.12413755513382,  0.00000000000000 ]
      - [ -0.29139786289836,  0.00000000000000 ]
    - # atom 8
      - [ -0.00001514744083,  0.00000000000000 ]
      - [ -0.12413755513382,  0.00000000000000 ]
      - [ -0.29139786289836,  0.00000000000000 ]
  - # 15
    frequency:    4.6084532143
    eigenvector:
    - # atom 1
      - [ -0.38688006189796,  0.00000000000000 ]
      - [  0.00091336099455,  0.00000000000000 ]
      - [ -0.00036898746238,  0.00000000000000 ]
    - # atom 2
      - [ -0.38688006189796,  0.00000000000000 ]
      - [  0.00091336099455,  0.00000000000000 ]
      - [ -0.00036898746238,  0.00000000000000 ]
    - # atom 3
      - [ -0.38688006189796,  0.00000000000000 ]
      - [  0.00091336099455,  0.00000000000000 ]
      - [ -0.00036898746238,  0.00000000000000 ]
    - # atom 4
      - [ -0.38688006189796,  0.00000000000000 ]
      - [  0.00091336099455,  0.00000000000000 ]
      - [ -0.00036898746238,  0.00000000000000 ]
    - # atom 5
      - [  0.31673679438501,  0.00000000000000 ]
      - [ -0.00074776413163,  0.00000000000000 ]
      - [  0.00030208821160,  0.00000000000000 ]
    - # atom 6
      - [  0.31673679438501,  0.00000000000000 ]
      - [ -0.00074776413163,  0.00000000000000 ]
      - [  0.00030208821160,  0.00000000000000 ]
    - # atom 7
      - [  0.31673679438501,  0.00000000000000 ]
      - [ -0.00074776413163,  0.00000000000000 ]
      - [  0.00030208821160,  0.00000000000000 ]
    - # atom 8
      - [  0.31673679438501,  0.00000000000000 ]
      - [ -0.00074776413163,  0.00000000000000 ]
      - [  0.00030208821160,  0.00000000000000 ]
  - # 16
    frequency:    4.8667643502
    eigenvector:
    - # atom 1
      - [ -0.00000002705662,  0.00000000000000 ]
      - [ -0.18336757795239,  0.00000000000000 ]
      - [  0.19701573287833,  0.00000000000000 ]
    - # atom 2
      - [  0.00000002705662,  0.00000000000000 ]
      - [  0.04960564708976,  0.00000000000000 ]
      - [  0.29767032938948,  0.00000000000000 ]
    - # atom 3
      - [ -0.30870429478881,  0.00000000000000 ]
      - [  0.18336757795239,  0.00000000000000 ]
      - [ -0.29767032938947,  0.00000000000000 ]
    - # atom 4
      - [  0.30870429478881,  0.00000000000000 ]
      - [ -0.04960564708976,  0.00000000000000 ]
      - [ -0.19701573287833,  0.00000000000000 ]
    - # atom 5
      - [ -0.00000002611983,  0.00000000000000 ]
      - [ -0.17701880440803,  0.00000000000000 ]
      - [  0.19019441644557,  0.00000000000000 ]
    - # atom 6
      - [  0.00000002611983,  0.00000000000000 ]
      - [  0.04788814051956,  0.00000000000000 ]
      - [  0.28736402806144,  0.00000000000000 ]
    - # atom 7
      - [ -0.29801596219659,  0.00000000000000 ]
      - [  0.17701880440803,  0.00000000000000 ]
      - [ -0.28736402806144,  0.00000000000000 ]
    - # atom 8
      - [  0.29801596219659,  0.00000000000000 ]
      - [ -0.04788814051956,  0.00000000000000 ]
      - [ -0.19019441644557,  0.00000000000000 ]
  - # 17
    frequency:    4.8667643502
    eigenvector:
    - # atom 1
      - [  0.01281500028648, -0.00000000000000 ]
      - [  0.17304365830451,  0.00000000000000 ]
      - [  0.17340760168572,  0.00000000000000 ]
    - # atom 2
      - [ -0.01281500028648,  0.00000000000000 ]
      - [ -0.39814284107542,  0.00000000000000 ]
      - [  0.16923551345703,  0.00000000000000 ]
    - # atom 3
      - [  0.10709176130770,  0.00000000000000 ]
      - [ -0.17304365830451,  0.00000000000000 ]
      - [ -0.16923551345703,  0.00000000000000 ]
    - # atom 4
      - [ -0.10709176130770,  0.00000000000000 ]
      - [  0.39814284107542,  0.00000000000000 ]
      - [ -0.17340760168572,  0.00000000000000 ]
    - # atom 5
      - [  0.01237130388334,  0.00000000000000 ]
      - [  0.16705233196355,  0.00000000000000 ]
      - [  0.16740367445787,  0.00000000000000 ]
    - # atom 6
      - [ -0.01237130388334,  0.00000000000000 ]
      - [ -0.38435785921264,  0.00000000000000 ]
      - [  0.16337603730208,  0.00000000000000 ]
    - # atom 7
      - [  0.10338390112543,  0.00000000000000 ]
      - [ -0.16705233196355,  0.00000000000000 ]
      - [ -0.16337603730208,  0.00000000000000 ]
    - # atom 8
      - [ -0.10338390112543,  0.00000000000000 ]
      - [  0.38435785921264,  0.00000000000000 ]
      - [ -0.16740367445787,  0.00000000000000 ]
  - # 18
    frequency:    4.8667643502
    eigenvector:
    - # atom 1
      - [  0.50178288044138,  0.00000000000000 ]
      - [ -0.06616261685412,  0.00000000000000 ]
      - [ -0.04100266846755,  0.00000000000000 ]
    - # atom 2
      - [ -0.50178288044138,  0.00000000000000 ]
      - [ -0.02010703106771,  0.00000000000000 ]
      - [  0.01124062580943,  0.00000000000000 ]
    - # atom 3
      - [  0.02073982467051,  0.00000000000000 ]
      - [  0.06616261685412,  0.00000000000000 ]
      - [ -0.01124062580943,  0.00000000000000 ]
    - # atom 4
      - [ -0.02073982467051,  0.00000000000000 ]
      - [  0.02010703106771,  0.00000000000000 ]
      - [  0.04100266846755,  0.00000000000000 ]
    - # atom 5
      - [  0.48440954807841,  0.00000000000000 ]
      - [ -0.06387185489827,  0.00000000000000 ]
      - [ -0.03958302460400,  0.00000000000000 ]
    - # atom 6
      - [ -0.48440954807841,  0.00000000000000 ]
      - [ -0.01941086117593,  0.00000000000000 ]
      - [  0.01085143929916,  0.00000000000000 ]
    - # atom 7
      - [  0.02002174543506,  0.00000000000000 ]
      - [  0.06387185489827,  0.00000000000000 ]
      - [ -0.01085143929916,  0.00000000000000 ]
    - # atom 8
      - [ -0.02002174543506,  0.00000000000000 ]
      - [  0.01941086117593,  0.00000000000000 ]
      - [  0.03958302460400,  0.00000000000000 ]
  - # 19
    frequency:    4.8667643502
    eigenvector:
    - # atom 1
      - [ -0.07516381422466,  0.00000000000000 ]
      - [ -0.35042566587757,  0.00000000000000 ]
      - [ -0.13393859330139,  0.00000000000000 ]
    - # atom 2
      - [  0.07516381422466,  0.00000000000000 ]
      - [ -0.06409143899320,  0.00000000000000 ]
      - [  0.17349235216111,  0.00000000000000 ]
    - # atom 3
      - [  0.27966221165559,  0.00000000000000 ]
      - [  0.35042566587757,  0.00000000000000 ]
      - [ -0.17349235216111,  0.00000000000000 ]
    - # atom 4
      - [ -0.27966221165559,  0.00000000000000 ]
      - [  0.06409143899320,  0.00000000000000 ]
      - [  0.13393859330139,  0.00000000000000 ]
    - # atom 5
      - [ -0.07256140195216,  0.00000000000000 ]
      - [ -0.33829280563241,  0.00000000000000 ]
      - [ -0.12930120970710,  0.00000000000000 ]
    - # atom 6
      - [  0.07256140195216,  0.00000000000000 ]
      - [ -0.06187238785644,  0.00000000000000 ]
      - [  0.16748549060004,  0.00000000000000 ]
    - # atom 7
      - [  0.26997940910924,  0.00000000000000 ]
      - [  0.33829280563241,  0.00000000000000 ]
      - [ -0.16748549060004,  0.00000000000000 ]
    - # atom 8
      - [ -0.26997940910924,  0.00000000000000 ]
      - [  0.06187238785644,  0.00000000000000 ]
      - [  0.12930120970710,  0.00000000000000 ]
  - # 20
    frequency:    4.8667643502
    eigenvector:
    - # atom 1
      - [  0.00179166285752,  0.00000000000000 ]
      - [ -0.21682718207276,  0.00000000000000 ]
      - [  0.34856620241121,  0.00000000000000 ]
    - # atom 2
      - [ -0.00179166285752,  0.00000000000000 ]
      - [ -0.04814006854934,  0.00000000000000 ]
      - [ -0.28954366021281,  0.00000000000000 ]
    - # atom 3
      - [  0.06431891412841,  0.00000000000000 ]
      - [  0.21682718207276,  0.00000000000000 ]
      - [  0.28954366021280,  0.00000000000000 ]
    - # atom 4
      - [ -0.06431891412841,  0.00000000000000 ]
      - [  0.04814006854935,  0.00000000000000 ]
      - [ -0.34856620241121,  0.00000000000000 ]
    - # atom 5
      - [  0.00172962974415,  0.00000000000000 ]
      - [ -0.20931992974051,  0.00000000000000 ]
      - [  0.33649772275391,  0.00000000000000 ]
    - # atom 6
      - [ -0.00172962974415,  0.00000000000000 ]
      - [ -0.04647330500781,  0.00000000000000 ]
      - [ -0.27951873023105,  0.00000000000000 ]
    - # atom 7
      - [  0.06209198707303,  0.00000000000000 ]
      - [  0.20931992974051,  0.00000000000000 ]
      - [  0.27951873023105,  0.00000000000000 ]
    - # atom 8
      - [ -0.06209198707303,  0.00000000000000 ]
      - [  0.04647330500781,  0.00000000000000 ]
      - [ -0.33649772275391,  0.00000000000000 ]
  - # 21
    frequency:    4.8667643502
    eigenvector:
    - # atom 1
      - [ -0.03467653569515,  0.00000000000000 ]
      - [ -0.14507967502353,  0.00000000000000 ]
      - [ -0.22090947490870,  0.00000000000000 ]
    - # atom 2
      - [  0.03467653569515,  0.00000000000000 ]
      - [ -0.30165815241012,  0.00000000000000 ]
      - [ -0.16581854956092,  0.00000000000000 ]
    - # atom 3
      - [ -0.26317399540540,  0.00000000000000 ]
      - [  0.14507967502353,  0.00000000000000 ]
      - [  0.16581854956092,  0.00000000000000 ]
    - # atom 4
      - [  0.26317399540540,  0.00000000000000 ]
      - [  0.30165815241012,  0.00000000000000 ]
      - [  0.22090947490870,  0.00000000000000 ]
    - # atom 5
      - [ -0.03347592283387,  0.00000000000000 ]
      - [ -0.14005655145447,  0.00000000000000 ]
      - [ -0.21326088050799,  0.00000000000000 ]
    - # atom 6
      - [  0.03347592283387,  0.00000000000000 ]
      - [ -0.29121377986156,  0.00000000000000 ]
      - [ -0.16007737965306,  0.00000000000000 ]
    - # atom 7
      - [ -0.25406206777757,  0.00000000000000 ]
      - [  0.14005655145447,  0.00000000000000 ]
      - [  0.16007737965306,  0.00000000000000 ]
    - # atom 8
      - [  0.25406206777757,  0.00000000000000 ]
      - [  0.29121377986156,  0.00000000000000 ]
      - [  0.21326088050799,  0.00000000000000 ]
  - # 22
    frequency:    5.2556592515
    eigenvector:
    - # atom 1
      - [  0.30393081533150,  0.00000000000000 ]
      - [  0.00948942132147,  0.00000000000000 ]
      - [  0.02199523271652,  0.00000000000000 ]
    - # atom 2
      - [  0.30393081533150,  0.00000000000000 ]
      - [ -0.00948942132147,  0.00000000000000 ]
      - [ -0.02199523271652,  0.00000000000000 ]
    - # atom 3
      - [ -0.30393081533150,  0.00000000000000 ]
      - [  0.00948942132147,  0.00000000000000 ]
      - [ -0.02199523271652,  0.00000000000000 ]
    - # atom 4
      - [ -0.30393081533150,  0.00000000000000 ]
      - [ -0.00948942132147,  0.00000000000000 ]
      - [  0.02199523271652,  0.00000000000000 ]
    - # atom 5
      - [ -0.39507292220615,  0.00000000000000 ]
      - [ -0.01233508819246,  0.00000000000000 ]
      - [ -0.02859111490371,  0.00000000000000 ]
    - # atom 6
      - [ -0.39507292220615,  0.00000000000000 ]
      - [  0.01233508819246,  0.00000000000000 ]
      - [  0.02859111490371,  0.00000000000000 ]
    - # atom 7
      - [  0.39507292220615,  0.00000000000000 ]
      - [ -0.01233508819246,  0.00000000000000 ]
      - [  0.02859111490371,  0.00000000000000 ]
    - # atom 8
      - [  0.39507292220615,  0.00000000000000 ]
      - [  0.01233508819246,  0.00000000000000 ]