mesh: [     4,     4,     4 ]
nqpoint: 4      
reciprocal_lattice:
- [   0.17573761,   0.00000000,   0.00000000 ] # a*
- [   0.00000000,   0.17573761,   0.00000000 ] # b*
- [   0.00000000,   0.00000000,   0.17573761 ] # c*
natom:   8      
lattice:
- [     5.690301476175671,     0.000000000000000,     0.000000000000000 ] # a
- [     0.000000000000000,     5.690301476175671,     0.000000000000000 ] # b
- [     0.000000000000000,     0.000000000000000,     5.690301476175671 ] # c
points:
- symbol: Na # 1
  coordinates: [  0.000000000000000,  0.000000000000000,  0.000000000000000 ]
  mass: 22.989769
- symbol: Na # 2
  coordinates: [  0.000000000000000,  0.500000000000000,  0.500000000000000 ]
  mass: 22.989769
- symbol: Na # 3
  coordinates: [  0.500000000000000,  0.000000000000000,  0.500000000000000 ]
  mass: 22.989769
- symbol: Na # 4
  coordinates: [  0.500000000000000,  0.500000000000000,  0.000000000000000 ]
  mass: 22.989769
- symbol: Cl # 5
  coordinates: [  0.500000000000000,  0.500000000000000,  0.500000000000000 ]
  mass: 35.453000
- symbol: Cl # 6
  coordinates: [  0.500000000000000,  0.000000000000000,  0.000000000000000 ]
  mass: 35.453000
- symbol: Cl # 7
  coordinates: [  0.000000000000000,  0.500000000000000,  0.000000000000000 ]
  mass: 35.453000
- symbol: Cl # 8
  coordinates: [  0.000000000000000,  0.000000000000000,  0.500000000000000 ]
  mass: 35.453000

phonon:
- q-position: [    0.1250000,    0.1250000,    0.1250000 ]
  distance_from_gamma:  0.038048309
  weight: 8    
  band:
  - # 1
    frequency:     0.9880620302
    eigenvector:
    - # atom 1
      - [  0.00999207969324,  0.00000000000000 ]
      - [ -0.23053081751485, -0.00000000000000 ]
      - [  0.22053873782161,  0.00000000000000 ]
    - # atom 2
      - [  0.00999207969324,  0.00000000000000 ]
      - [ -0.23053081751485, -0.00000000000000 ]
      - [  0.22053873782161,  0.00000000000000 ]
    - # atom 3
      - [  0.00999207969324,  0.00000000000000 ]
      - [ -0.23053081751485, -0.00000000000000 ]
      - [  0.22053873782160, -0.00000000000000 ]
    - # atom 4
      - [  0.00999207969324, -0.00000000000000 ]
      - [ -0.23053081751485, -0.00000000000000 ]
      - [  0.22053873782161,  0.00000000000000 ]
    - # atom 5
      - [  0.01204792882564,  0.00000000000000 ]
      - [ -0.27796204261805, -0.00000000000000 ]
      - [  0.26591411379241, -0.00000000000000 ]
    - # atom 6
      - [  0.01204792882564,  0.00000000000000 ]
      - [ -0.27796204261805, -0.00000000000000 ]
      - [  0.26591411379241,  0.00000000000000 ]
    - # atom 7
      - [  0.01204792882564,  0.00000000000000 ]
      - [ -0.27796204261805, -0.00000000000000 ]
      - [  0.26591411379241,  0.00000000000000 ]
    - # atom 8
      - [  0.01204792882564,  0.00000000000000 ]
      - [ -0.27796204261805, -0.00000000000000 ]
      - [  0.26591411379241,  0.00000000000000 ]
  - # 2
    frequency:     0.9880620302
    eigenvector:
    - # atom 1
      - [ -0.26042512919674,  0.00000000000000 ]
      - [  0.12155916974739,  0.00000000000000 ]
      - [  0.13886595944936,  0.00000000000000 ]
    - # atom 2
      - [ -0.26042512919674, -0.00000000000000 ]
      - [  0.12155916974739,  0.00000000000000 ]
      - [  0.13886595944936, -0.00000000000000 ]
    - # atom 3
      - [ -0.26042512919674,  0.00000000000000 ]
      - [  0.12155916974739,  0.00000000000000 ]
      - [  0.13886595944936, -0.00000000000000 ]
    - # atom 4
      - [ -0.26042512919674, -0.00000000000000 ]
      - [  0.12155916974739,  0.00000000000000 ]
      - [  0.13886595944936,  0.00000000000000 ]
    - # atom 5
      - [ -0.31400704530940,  0.00000000000000 ]
      - [  0.14656971022871,  0.00000000000000 ]
      - [  0.16743733508069, -0.00000000000000 ]
    - # atom 6
      - [ -0.31400704530940,  0.00000000000000 ]
      - [  0.14656971022871,  0.00000000000000 ]
      - [  0.16743733508069, -0.00000000000000 ]
    - # atom 7
      - [ -0.31400704530940, -0.00000000000000 ]
      - [  0.14656971022871,  0.00000000000000 ]
      - [  0.16743733508069, -0.00000000000000 ]
    - # atom 8
      - [ -0.31400704530940,  0.00000000000000 ]
      - [  0.14656971022871,  0.00000000000000 ]
      - [  0.16743733508069, -0.00000000000000 ]
  - # 3
    frequency:     1.6482707343
    eigenvector:
    - # atom 1
      - [  0.18155682401588,  0.00000000000000 ]
      - [  0.18155682401588,  0.00000000000000 ]
      - [  0.18155682401588,  0.00000000000000 ]
    - # atom 2
      - [  0.18155682401588,  0.00000000000000 ]
      - [  0.18155682401588,  0.00000000000000 ]
      - [  0.18155682401588, -0.00000000000000 ]
    - # atom 3
      - [  0.18155682401588, -0.00000000000000 ]
      - [  0.18155682401588,  0.00000000000000 ]
      - [  0.18155682401588, -0.00000000000000 ]
    - # atom 4
      - [  0.18155682401588,  0.00000000000000 ]
      - [  0.18155682401588, -0.00000000000000 ]
      - [  0.18155682401588,  0.00000000000000 ]
    - # atom 5
      - [  0.22443362712972,  0.00000000000000 ]
      - [  0.22443362712972,  0.00000000000000 ]
      - [  0.22443362712972, -0.00000000000000 ]
    - # atom 6
      - [  0.22443362712972,  0.00000000000000 ]
      - [  0.22443362712972,  0.00000000000000 ]
      - [  0.22443362712972,  0.00000000000000 ]
    - # atom 7
      - [  0.22443362712972,  0.00000000000000 ]
      - [  0.22443362712972,  0.00000000000000 ]
      - [  0.22443362712972,  0.00000000000000 ]
    - # atom 8
      - [  0.22443362712972, -0.00000000000000 ]
      - [  0.22443362712972,  0.00000000000000 ]
      - [  0.22443362712972, -0.00000000000000 ]
  - # 4
    frequency:     2.4974883427
    eigenvector:
    - # atom 1
      - [  0.18012370798775, -0.00000000000000 ]
      - [  0.15454459844805,  0.00852084741172 ]
      - [ -0.33466830643581, -0.00852084741172 ]
    - # atom 2
      - [ -0.18012370798775, -0.00000000000000 ]
      - [  0.23415371122176,  0.00461203597305 ]
      - [ -0.05403000323401, -0.00461203597305 ]
    - # atom 3
      - [  0.10051459521404,  0.00390881143867 ]
      - [ -0.15454459844805, -0.00852084741172 ]
      - [  0.05403000323401,  0.00461203597305 ]
    - # atom 4
      - [ -0.10051459521404, -0.00390881143867 ]
      - [ -0.23415371122176, -0.00461203597305 ]
      - [  0.33466830643581,  0.00852084741172 ]
    - # atom 5
      - [ -0.19021562988711,  0.00000000000000 ]
      - [ -0.16320338098661, -0.00899825112251 ]
      - [  0.35341901087373,  0.00899825112251 ]
    - # atom 6
      - [  0.19021562988711, -0.00000000000000 ]
      - [ -0.24727281138072, -0.00487043786449 ]
      - [  0.05705718149361,  0.00487043786449 ]
    - # atom 7
      - [ -0.10614619949300, -0.00412781325802 ]
      - [  0.16320338098661,  0.00899825112251 ]
      - [ -0.05705718149361, -0.00487043786449 ]
    - # atom 8
      - [  0.10614619949300,  0.00412781325802 ]
      - [  0.24727281138072,  0.00487043786449 ]
      - [ -0.35341901087373, -0.00899825112251 ]
  - # 5
    frequency:     2.4974883427
    eigenvector:
    - # atom 1
      - [  0.23760317242026,  0.00000000000000 ]
      - [ -0.19534221206031, -0.00472717569093 ]
      - [ -0.04226096035995,  0.00472717569093 ]
    - # atom 2
      - [ -0.23760317242026,  0.00000000000000 ]
      - [ -0.09625747115372,  0.00021892641341 ]
      - [  0.33386064357399, -0.00021892641341 ]
    - # atom 3
      - [  0.13851843151367, -0.00494610210434 ]
      - [  0.19534221206031,  0.00472717569093 ]
      - [ -0.33386064357399,  0.00021892641341 ]
    - # atom 4
      - [ -0.13851843151367,  0.00494610210434 ]
      - [  0.09625747115372, -0.00021892641341 ]
      - [  0.04226096035995, -0.00472717569093 ]
    - # atom 5
      - [ -0.25091553804882, -0.00000000000000 ]
      - [  0.20628679214799,  0.00499202859902 ]
      - [  0.04462874590084, -0.00499202859902 ]
    - # atom 6
      - [  0.25091553804882, -0.00000000000000 ]
      - [  0.10165055844893, -0.00023119236269 ]
      - [ -0.35256609649775,  0.00023119236269 ]
    - # atom 7
      - [ -0.14627930434976,  0.00522322096171 ]
      - [ -0.20628679214799, -0.00499202859902 ]
      - [  0.35256609649775, -0.00023119236269 ]
    - # atom 8
      - [  0.14627930434976, -0.00522322096171 ]
      - [ -0.10165055844893,  0.00023119236269 ]
      - [ -0.04462874590084,  0.00499202859902 ]
  - # 6
    frequency:     2.4974883427
    eigenvector:
    - # atom 1
      - [  0.17115086735631,  0.00000000000000 ]
      - [ -0.23674688895726, -0.00240498162003 ]
      - [  0.06559602160095,  0.00240498162003 ]
    - # atom 2
      - [ -0.17115086735631, -0.00000000000000 ]
      - [  0.23248882687931, -0.00515775727478 ]
      - [ -0.06133795952300,  0.00515775727478 ]
    - # atom 3
      - [ -0.29808484848026,  0.00275277565475 ]
      - [  0.23674688895726,  0.00240498162003 ]
      - [  0.06133795952300, -0.00515775727478 ]
    - # atom 4
      - [  0.29808484848026, -0.00275277565475 ]
      - [ -0.23248882687931,  0.00515775727478 ]
      - [ -0.06559602160095, -0.00240498162003 ]
    - # atom 5
      - [ -0.18074006139225,  0.00000000000000 ]
      - [  0.25001127896990,  0.00253972727317 ]
      - [ -0.06927121757766, -0.00253972727317 ]
    - # atom 6
      - [  0.18074006139225,  0.00000000000000 ]
      - [ -0.24551464735320,  0.00544673469021 ]
      - [  0.06477458596095, -0.00544673469021 ]
    - # atom 7
      - [  0.31478586493085, -0.00290700741705 ]
      - [ -0.25001127896990, -0.00253972727317 ]
      - [ -0.06477458596095,  0.00544673469021 ]
    - # atom 8
      - [ -0.31478586493085,  0.00290700741705 ]
      - [  0.24551464735320, -0.00544673469021 ]
      - [  0.06927121757766,  0.00253972727317 ]
  - # 7
    frequency:     2.8248197283
    eigenvector:
    - # atom 1
      - [  0.08009455788795, -0.00000000000000 ]
      - [  0.09567948166025, -0.00118393832018 ]
      - [  0.30752773488188,  0.00566933532082 ]
    - # atom 2
      - [ -0.04656438813579,  0.00047735679119 ]
      - [  0.23783130748805,  0.00593200972308 ]
      - [  0.02598305426641, -0.00092126391792 ]
    - # atom 3
      - [  0.21876239104507,  0.00738061616036 ]
      - [ -0.06563330457876,  0.00192596322847 ]
      - [ -0.00867078594886,  0.00171128083955 ]
    - # atom 4
      - [ -0.25229256079724, -0.00785797295155 ]
      - [ -0.26787748456954, -0.00667403463137 ]
      - [ -0.32484000319943, -0.00645935224245 ]
    - # atom 5
      - [ -0.07617191965490,  0.00014611005362 ]
      - [ -0.09405693910648,  0.00150477950849 ]
      - [ -0.33717074479510, -0.00635993219411 ]
    - # atom 6
      - [  0.06051341048790, -0.00036903453465 ]
      - [ -0.26585472723868, -0.00662871056603 ]
      - [ -0.02274092155005,  0.00123600113657 ]
    - # atom 7
      - [ -0.24634269153354, -0.00811097939927 ]
      - [  0.08002544619304, -0.00185130336788 ]
      - [  0.01465613360667, -0.00160493715153 ]
    - # atom 8
      - [  0.26200120070054,  0.00833390388029 ]
      - [  0.27988622015211,  0.00697523442543 ]
      - [  0.34525553273849,  0.00672886820908 ]
  - # 8
    frequency:     2.8248197283
    eigenvector:
    - # atom 1
      - [ -0.15573966792466,  0.00000000000000 ]
      - [ -0.32421051950903,  0.00655490525089 ]
      - [ -0.11167298123846,  0.00402517596089 ]
    - # atom 2
      - [  0.12759181370585,  0.00112598140523 ]
      - [  0.04423540626817,  0.00464476805225 ]
      - [ -0.16830213200240,  0.00717449734225 ]
    - # atom 3
      - [  0.25036773253904, -0.00337547910116 ]
      - [  0.33372413997672, -0.00689426574818 ]
      - [  0.20630104585285, -0.00740065506205 ]
    - # atom 4
      - [ -0.22221987832023,  0.00224949769593 ]
      - [ -0.05374902673586, -0.00430540755496 ]
      - [  0.07367406738801, -0.00379901824109 ]
    - # atom 5
      - [  0.15945256048613,  0.00034464200893 ]
      - [  0.35278712545622, -0.00717766670610 ]
      - [  0.10888230681894, -0.00427458817842 ]
    - # atom 6
      - [ -0.14630757981426, -0.00087047263508 ]
      - [ -0.05064904530888, -0.00490857821374 ]
      - [  0.19325577332841, -0.00781165674142 ]
    - # atom 7
      - [ -0.26157142898017,  0.00329804166890 ]
      - [ -0.35722996348555,  0.00733614724756 ]
      - [ -0.21100117531298,  0.00791727185625 ]
    - # atom 8
      - [  0.24842644830831, -0.00277221104275 ]
      - [  0.05509188333821,  0.00475009767227 ]
      - [ -0.09113690483436,  0.00416897306359 ]
  - # 9
    frequency:     2.8248197283
    eigenvector:
    - # atom 1
      - [  0.29168472399557,  0.00000000000000 ]
      - [  0.03773509651976,  0.00382497159292 ]
      - [  0.09304355844286,  0.00059240901985 ]
    - # atom 2
      - [ -0.31193000929534,  0.00047011817114 ]
      - [ -0.23910661139021,  0.00085110023757 ]
      - [ -0.29441507331332,  0.00408366281064 ]
    - # atom 3
      - [  0.07161317767073, -0.00382893957320 ]
      - [ -0.00121022023439, -0.00420992163963 ]
      - [  0.27025434322344, -0.00442134859306 ]
    - # atom 4
      - [ -0.05136789237097,  0.00335882140206 ]
      - [  0.20258173510485, -0.00046615019086 ]
      - [ -0.06888282835298, -0.00025472323743 ]
    - # atom 5
      - [ -0.32097133547672,  0.00014389444638 ]
      - [ -0.02954263852039, -0.00424558427939 ]
      - [ -0.09301378100295, -0.00053594505737 ]
    - # atom 6
      - [  0.33042583534350, -0.00036343850914 ]
      - [  0.24685482100348, -0.00080064768438 ]
      - [  0.31032596348604, -0.00451028690639 ]
    - # atom 7
      - [ -0.07108540578294,  0.00398814585626 ]
      - [  0.01248560855707,  0.00442535503151 ]
      - [ -0.29904296025671,  0.00466798536001 ]
    - # atom 8
      - [  0.06163090591616, -0.00376860179351 ]
      - [ -0.22979779104016,  0.00062087693226 ]
      - [  0.08173077777362,  0.00037824660375 ]
  - # 10
    frequency:     4.1042899506
    eigenvector:
    - # atom 1
      - [ -0.00018796105468,  0.00000000000000 ]
      - [ -0.25185618592738, -0.01483213780171 ]
      - [ -0.31922464275196,  0.00740234502953 ]
    - # atom 2
      - [  0.15422947387068,  0.00200917681976 ]
      - [  0.27486598266713,  0.01513225657743 ]
      - [  0.34223443949171, -0.00710222625381 ]
    - # atom 3
      - [ -0.06519053282074, -0.00490907005662 ]
      - [ -0.18582704161719, -0.01803214981430 ]
      - [  0.25384614887654, -0.01231141508615 ]
    - # atom 4
      - [ -0.08885097999526,  0.00289989323686 ]
      - [  0.16281724487743,  0.01773203103857 ]
      - [ -0.27685594561630,  0.01201129631043 ]
    - # atom 5
      - [ -0.02460842897935, -0.00031822085146 ]
      - [ -0.21308987784499, -0.01142642819093 ]
      - [ -0.26354401982721,  0.00522560462303 ]
    - # atom 6
      - [  0.14854316635235,  0.00193471238637 ]
      - [  0.23889125847065,  0.01176295783753 ]
      - [  0.28934540045287, -0.00488907497643 ]
    - # atom 7
      - [ -0.04870188420118, -0.00518642512527 ]
      - [ -0.13904997631948, -0.01501467057643 ]
      - [  0.19023370664668, -0.01073025059976 ]
    - # atom 8
      - [ -0.07523285317182,  0.00356993359035 ]
      - [  0.11324859569382,  0.01467814092982 ]
      - [ -0.21603508727234,  0.01039372095316 ]
  - # 11
    frequency:     4.1042899506
    eigenvector:
    - # atom 1
      - [  0.38652198119004,  0.00000000000000 ]
      - [  0.11866203084783, -0.00000733548539 ]
      - [  0.11864808374323,  0.00000264991230 ]
    - # atom 2
      - [  0.35357449782584,  0.00000126708041 ]
      - [ -0.00811086033117,  0.00000752475426 ]
      - [ -0.00809691322657, -0.00000246064343 ]
    - # atom 3
      - [ -0.37004579032959, -0.00000238702385 ]
      - [ -0.00836043217257, -0.00000864469770 ]
      - [ -0.10217189288279, -0.00000503693615 ]
    - # atom 4
      - [ -0.37005068868629,  0.00000111994344 ]
      - [ -0.10219073834408,  0.00000845542883 ]
      - [ -0.00837927763387,  0.00000484766728 ]
    - # atom 5
      - [  0.31619620563736, -0.00000020068488 ]
      - [  0.11558831578906, -0.00000569443728 ]
      - [  0.11557787040811,  0.00000178390936 ]
    - # atom 6
      - [  0.27925148298067,  0.00000122011967 ]
      - [  0.00837509255273,  0.00000590666853 ]
      - [  0.00838553793368, -0.00000157167811 ]
    - # atom 7
      - [ -0.29772109799259, -0.00000247593637 ]
      - [ -0.02684470756465, -0.00000716248524 ]
      - [ -0.09710276276334, -0.00000446053061 ]
    - # atom 8
      - [ -0.29772659062544,  0.00000145650158 ]
      - [ -0.09711870077715,  0.00000695025398 ]
      - [ -0.02686064557845,  0.00000424829935 ]
  - # 12
    frequency:     4.1042899506
    eigenvector:
    - # atom 1
      - [ -0.00001619788194,  0.00000000000000 ]
      - [ -0.26769102242494, -0.00293014120716 ]
      - [  0.18124321004811, -0.02266365617554 ]
    - # atom 2
      - [  0.02335985357667,  0.00692111691505 ]
      - [  0.27117795762104,  0.00396397611644 ]
      - [ -0.17775627485201,  0.02369749108482 ]
    - # atom 3
      - [ -0.09050682862468,  0.00000474125754 ]
      - [ -0.33832493266906,  0.00296188205615 ]
      - [ -0.27176623655473,  0.02266839743307 ]
    - # atom 4
      - [  0.06716317292995, -0.00692585817259 ]
      - [  0.33483799747296, -0.00399571696543 ]
      - [  0.26827930135863, -0.02370223234235 ]
    - # atom 5
      - [ -0.00371541751057, -0.00109619208031 ]
      - [ -0.20418466141390, -0.00329065767240 ]
      - [  0.13203487772223, -0.01806964494556 ]
    - # atom 6
      - [  0.02249665241903,  0.00666460537043 ]
      - [  0.20809463694428,  0.00444991902095 ]
      - [ -0.12812490219184,  0.01922890629411 ]
    - # atom 7
      - [ -0.09779000162459,  0.00110150855449 ]
      - [ -0.28338798614984,  0.00331619490397 ]
      - [ -0.23354029685739,  0.01807496141974 ]
    - # atom 8
      - [  0.07900876671612, -0.00666992184462 ]
      - [  0.27947801061945, -0.00447545625252 ]
      - [  0.22963032132700, -0.01923422276830 ]
  - # 13
    frequency:     4.5189871349
    eigenvector:
    - # atom 1
      - [  0.30718425014512,  0.00000000000000 ]
      - [ -0.09625487568981, -0.00000000000000 ]
      - [ -0.21092937445531, -0.00000000000000 ]
    - # atom 2
      - [  0.30718425014513,  0.00000000000000 ]
      - [ -0.09625487568981,  0.00000000000000 ]
      - [ -0.21092937445532,  0.00000000000000 ]
    - # atom 3
      - [  0.30718425014513,  0.00000000000000 ]
      - [ -0.09625487568981,  0.00000000000000 ]
      - [ -0.21092937445531,  0.00000000000000 ]
    - # atom 4
      - [  0.30718425014513, -0.00000000000000 ]
      - [ -0.09625487568981, -0.00000000000000 ]
      - [ -0.21092937445532, -0.00000000000000 ]
    - # atom 5
      - [ -0.25476657045202, -0.00000000000000 ]
      - [  0.07983001914061, -0.00000000000000 ]
      - [  0.17493655131141, -0.00000000000000 ]
    - # atom 6
      - [ -0.25476657045202,  0.00000000000000 ]
      - [  0.07983001914061,  0.00000000000000 ]
      - [  0.17493655131141,  0.00000000000000 ]
    - # atom 7
      - [ -0.25476657045202,  0.00000000000000 ]
      - [  0.07983001914061,  0.00000000000000 ]
      - [  0.17493655131141,  0.00000000000000 ]
    - # atom 8
      - [ -0.25476657045202, -0.00000000000000 ]
      - [  0.07983001914061, -0.00000000000000 ]
      - [  0.17493655131141, -0.00000000000000 ]
  - # 14
    frequency:     4.5189871349
    eigenvector:
    - # atom 1
      - [  0.06620735273145,  0.00000000000000 ]
      - [ -0.29913304063388, -0.00000000000000 ]
      - [  0.23292568790243,  0.00000000000000 ]
    - # atom 2
      - [  0.06620735273145, -0.00000000000000 ]
      - [ -0.29913304063387,  0.00000000000000 ]
      - [  0.23292568790243, -0.00000000000000 ]
    - # atom 3
      - [  0.06620735273145, -0.00000000000000 ]
      - [ -0.29913304063388, -0.00000000000000 ]
      - [  0.23292568790243, -0.00000000000000 ]
    - # atom 4
      - [  0.06620735273145,  0.00000000000000 ]
      - [ -0.29913304063388,  0.00000000000000 ]
      - [  0.23292568790243,  0.00000000000000 ]
    - # atom 5
      - [ -0.05490978195051,  0.00000000000000 ]
      - [  0.24808921302174, -0.00000000000000 ]
      - [ -0.19317943107124,  0.00000000000000 ]
    - # atom 6
      - [ -0.05490978195051,  0.00000000000000 ]
      - [  0.24808921302174,  0.00000000000000 ]
      - [ -0.19317943107124, -0.00000000000000 ]
    - # atom 7
      - [ -0.05490978195051, -0.00000000000000 ]
      - [  0.24808921302174, -0.00000000000000 ]
      - [ -0.19317943107123, -0.00000000000000 ]
    - # atom 8
      - [ -0.05490978195051,  0.00000000000000 ]
      - [  0.24808921302174,  0.00000000000000 ]
      - [ -0.19317943107124,  0.00000000000000 ]
  - # 15
    frequency:     4.7685424481
    eigenvector:
    - # atom 1
      - [  0.36302306167239,  0.00000000000000 ]
      - [ -0.18247995745645, -0.00008800480152 ]
      - [ -0.18054310421594,  0.00008800480152 ]
    - # atom 2
      - [ -0.36302306167239,  0.00000000000000 ]
      - [  0.17748779300848, -0.00012409000883 ]
      - [  0.18553526866390,  0.00012409000883 ]
    - # atom 3
      - [  0.00305531120746,  0.00003608520731 ]
      - [  0.18247995745645,  0.00008800480152 ]
      - [ -0.18553526866390, -0.00012409000883 ]
    - # atom 4
      - [ -0.00305531120745, -0.00003608520731 ]
      - [ -0.17748779300849,  0.00012409000883 ]
      - [  0.18054310421594, -0.00008800480152 ]
    - # atom 5
      - [  0.34376281272104, -0.00000000000000 ]
      - [ -0.17279845294527, -0.00008333569213 ]
      - [ -0.17096435977577,  0.00008333569213 ]
    - # atom 6
      - [ -0.34376281272104,  0.00000000000000 ]
      - [  0.16807114861289, -0.00011750639276 ]
      - [  0.17569166410815,  0.00011750639276 ]
    - # atom 7
      - [  0.00289321116288,  0.00003417070063 ]
      - [  0.17279845294527,  0.00008333569213 ]
      - [ -0.17569166410815, -0.00011750639276 ]
    - # atom 8
      - [ -0.00289321116288, -0.00003417070063 ]
      - [ -0.16807114861289,  0.00011750639276 ]
      - [  0.17096435977577, -0.00008333569213 ]
  - # 16
    frequency:     4.7685424481
    eigenvector:
    - # atom 1
      - [ -0.00052483891446,  0.00000000000000 ]
      - [ -0.31019332669097, -0.02840896779136 ]
      - [  0.31071816560543,  0.02840896779136 ]
    - # atom 2
      - [  0.00052483891446, -0.00000000000000 ]
      - [ -0.06528347351422, -0.00843912386656 ]
      - [  0.06475863459976,  0.00843912386656 ]
    - # atom 3
      - [ -0.24543469209121, -0.01996984392480 ]
      - [  0.31019332669097,  0.02840896779136 ]
      - [ -0.06475863459976, -0.00843912386656 ]
    - # atom 4
      - [  0.24543469209121,  0.01996984392480 ]
      - [  0.06528347351422,  0.00843912386656 ]
      - [ -0.31071816560543, -0.02840896779136 ]
    - # atom 5
      - [ -0.00049699349851,  0.00000000000000 ]
      - [ -0.29373596812098, -0.02690172527737 ]
      - [  0.29423296161950,  0.02690172527737 ]
    - # atom 6
      - [  0.00049699349851, -0.00000000000000 ]
      - [ -0.06181984796244, -0.00799138474538 ]
      - [  0.06132285446393,  0.00799138474538 ]
    - # atom 7
      - [ -0.23241311365705, -0.01891034053199 ]
      - [  0.29373596812098,  0.02690172527737 ]
      - [ -0.06132285446394, -0.00799138474538 ]
    - # atom 8
      - [  0.23241311365705,  0.01891034053199 ]
      - [  0.06181984796244,  0.00799138474538 ]
      - [ -0.29423296161950, -0.02690172527737 ]
  - # 17
    frequency:     4.7685424481
    eigenvector:
    - # atom 1
      - [ -0.00464156416227,  0.00000000000000 ]
      - [ -0.03831679897950, -0.00367066792088 ]
      - [  0.04295836314177,  0.00367066792088 ]
    - # atom 2
      - [  0.00464156416227, -0.00000000000000 ]
      - [ -0.30967063145927, -0.00875100567344 ]
      - [  0.30502906729700,  0.00875100567344 ]
    - # atom 3
      - [  0.26671226831751,  0.00508033775256 ]
      - [  0.03831679897950,  0.00367066792088 ]
      - [ -0.30502906729700, -0.00875100567344 ]
    - # atom 4
      - [ -0.26671226831751, -0.00508033775256 ]
      - [  0.30967063145928,  0.00875100567344 ]
      - [ -0.04295836314177, -0.00367066792088 ]
    - # atom 5
      - [ -0.00439530520319, -0.00000000000000 ]
      - [ -0.03628389483296, -0.00347592002347 ]
      - [  0.04067920003615,  0.00347592002347 ]
    - # atom 6
      - [  0.00439530520319, -0.00000000000000 ]
      - [ -0.29324100457179, -0.00828671961109 ]
      - [  0.28884569936860,  0.00828671961109 ]
    - # atom 7
      - [  0.25256180453565,  0.00481079958763 ]
      - [  0.03628389483296,  0.00347592002347 ]
      - [ -0.28884569936860, -0.00828671961109 ]
    - # atom 8
      - [ -0.25256180453565, -0.00481079958763 ]
      - [  0.29324100457179,  0.00828671961109 ]
      - [ -0.04067920003615, -0.00347592002347 ]
  - # 18
    frequency:     4.9636582282
    eigenvector:
    - # atom 1
      - [ -0.29266756782888,  0.00000000000000 ]
      - [ -0.03524658885870, -0.00306808233728 ]
      - [ -0.26074161539112,  0.00451945234742 ]
    - # atom 2
      - [  0.32513597151394, -0.00045086006748 ]
      - [ -0.05865218333256,  0.00437197171778 ]
      - [  0.16684284319987, -0.00321556296692 ]
    - # atom 3
      - [ -0.18379121164192,  0.00586344628212 ]
      - [  0.19999694320458,  0.00104061449685 ]
      - [ -0.21571716407967,  0.00134399393470 ]
    - # atom 4
      - [  0.15132280795685, -0.00541258621463 ]
      - [ -0.10609817101333, -0.00234450387735 ]
      - [  0.30961593627092, -0.00264788331520 ]
    - # atom 5
      - [ -0.26824910363182, -0.00000411577190 ]
      - [ -0.03083755719905, -0.00283371487913 ]
      - [ -0.23880476785970,  0.00416403779167 ]
    - # atom 6
      - [  0.29863420560185, -0.00041781532326 ]
      - [ -0.05532194711421,  0.00403013587678 ]
      - [  0.15264526354644, -0.00296761679402 ]
    - # atom 7
      - [ -0.16893927814267,  0.00538428862661 ]
      - [  0.18501687457339,  0.00093633742657 ]
      - [ -0.19838361391479,  0.00121613506305 ]
    - # atom 8
      - [  0.13855417617264, -0.00496235753146 ]
      - [ -0.09885737026013, -0.00213275842423 ]
      - [  0.28454311822804, -0.00241255606070 ]
  - # 19
    frequency:     4.9636582282
    eigenvector:
    - # atom 1
      - [ -0.20537901527959,  0.00000000000000 ]
      - [ -0.18212072939565,  0.00703250777681 ]
      - [  0.20970040393156, -0.00677417962480 ]
    - # atom 2
      - [  0.15507245913706, -0.00008024821185 ]
      - [  0.32760752020841, -0.00680042958053 ]
      - [ -0.06421361311881,  0.00700625782108 ]
    - # atom 3
      - [  0.31630106295188, -0.01021911438737 ]
      - [  0.14376600188055, -0.00349893301869 ]
      - [ -0.09877835625927, -0.00344493476257 ]
    - # atom 4
      - [ -0.26599450680936,  0.01029936259922 ]
      - [ -0.28925279269330,  0.00326685482241 ]
      - [ -0.04670843455348,  0.00321285656629 ]
    - # atom 5
      - [ -0.18891062423373, -0.00000073256285 ]
      - [ -0.16746021393240,  0.00648513565688 ]
      - [  0.19390451073144, -0.00624835257801 ]
    - # atom 6
      - [  0.14183193650463, -0.00007436660506 ]
      - [  0.30095578036028, -0.00627218566949 ]
      - [ -0.06040894430356,  0.00646130256540 ]
    - # atom 7
      - [  0.29069032189997, -0.00937610815178 ]
      - [  0.13156647804432, -0.00317828908735 ]
      - [ -0.09212481306520, -0.00312848813662 ]
    - # atom 8
      - [ -0.24361163417087,  0.00945120731969 ]
      - [ -0.26506204447221,  0.00296533909996 ]
      - [ -0.04137075336268,  0.00291553814923 ]
  - # 20
    frequency:     4.9636582282
    eigenvector:
    - # atom 1
      - [  0.08803599027708,  0.00000000000000 ]
      - [ -0.31792689078135,  0.00620656761942 ]
      - [ -0.15348553548836, -0.00077896794271 ]
    - # atom 2
      - [  0.07629718679574, -0.00168605382461 ]
      - [ -0.15732541010469, -0.00133049223504 ]
      - [ -0.32176676539767,  0.00565504332709 ]
    - # atom 3
      - [  0.04002369744885, -0.00434766606499 ]
      - [  0.27364629434927, -0.00470322765456 ]
      - [  0.28154522321430, -0.00356869812228 ]
    - # atom 4
      - [ -0.20435687452167,  0.00603371988960 ]
      - [  0.20160600653677, -0.00017284772982 ]
      - [  0.19370707767174, -0.00130737726210 ]
    - # atom 5
      - [  0.08228009138194, -0.00001539150048 ]
      - [ -0.29212713747702,  0.00570873721063 ]
      - [ -0.14046787251038, -0.00073380996287 ]
    - # atom 6
      - [  0.07150881646981, -0.00156247841529 ]
      - [ -0.14395420536181, -0.00123455476598 ]
      - [ -0.29561347032844,  0.00520799240752 ]
    - # atom 7
      - [  0.03522473812216, -0.00397393385850 ]
      - [  0.25068775995377, -0.00430185750780 ]
      - [  0.25797270201448, -0.00325551539610 ]
    - # atom 8
      - [ -0.18901364597391,  0.00555180377426 ]
      - [  0.18539358288505, -0.00017232493685 ]
      - [  0.17810864082434, -0.00121866704855 ]
  - # 21
    frequency:     5.1357294967
    eigenvector:
    - # atom 1
      - [  0.30923089566637,  0.00000000000000 ]
      - [  0.02856874929026, -0.00017701431955 ]
      - [ -0.04746930377096,  0.00010003022608 ]
    - # atom 2
      - [  0.31059408595259, -0.00000831455914 ]
      - [ -0.06016049567939,  0.00017743810280 ]
      - [  0.01587755738184, -0.00009960644283 ]
    - # atom 3
      - [ -0.31360010702342,  0.00001759310436 ]
      - [  0.05715447460856, -0.00016815955758 ]
      - [  0.04310009241392, -0.00008243712172 ]
    - # atom 4
      - [ -0.30622487459554, -0.00000927854522 ]
      - [ -0.02556272821943,  0.00016773577433 ]
      - [ -0.01150834602479,  0.00008201333847 ]
    - # atom 5
      - [ -0.38236457427422,  0.00000299569505 ]
      - [ -0.04557923284544,  0.00021540705446 ]
      - [  0.04566392905743, -0.00011703728510 ]
    - # atom 6
      - [ -0.38306569482774,  0.00000727206670 ]
      - [  0.06182760472638, -0.00021562501607 ]
      - [ -0.02941555717650,  0.00011681932349 ]
    - # atom 7
      - [  0.38461176156426, -0.00001204423889 ]
      - [ -0.06028153798986,  0.00021085284389 ]
      - [ -0.04341674176740,  0.00010798874126 ]
    - # atom 8
      - [  0.38081850753770,  0.00000177647714 ]
      - [  0.04403316610892, -0.00021063488228 ]
      - [  0.02716836988647, -0.00010777077965 ]
  - # 22
    frequency:     5.1357294967