 +-------------------------------------------------+
 |                                                 |
 |      CCC   AA    SSS  TTTTT  EEEEE  PPPP        |
 |     C     A  A  S       T    E      P   P       |
 |     C     AAAA   SS     T    EEE    PPPP        |
 |     C     A  A     S    T    E      P           |
 |      CCC  A  A  SSS     T    EEEEE  P           |
 |                                                 |
 +-------------------------------------------------+
 |                                                 |
 | Welcome to Academic Release CASTEP version 17.21|          
 | Ab Initio Total Energy Program                  |
 |                                                 |
 | Authors:                                        |
 | M. Segall, M. Probert, C. Pickard, P. Hasnip,   |
 | S. Clark, K. Refson, J. R. Yates, M. Payne      |
 |                                                 |
 | Contributors:                                   |
 | P. Lindan, P. Haynes, J. White, V. Milman,      |
 | N. Govind, M. Gibson, P. Tulip, V. Cocula,      |
 | B. Montanari, D. Quigley, M. Glover,            |
 | L. Bernasconi, A. Perlov, M. Plummer,           |
 | E. McNellis, J. Meyer, J. Gale, D. Jochym       |
 | J. Aarons, B. Walker, R. Gillen, D. Jones       |
 | T. Green, I. J. Bush, C. J. Armstrong,          |
 | E. J. Higgins, E. L. Brown, M. S. McFly,        |
 | J. Wilkins, B-C. Shih, P. J. P. Byrne           |
 |                                                 |
 | Copyright (c) 2000 - 2017                       |
 |                                                 |
 |     Distributed under the terms of an           |
 |     Agreement between the United Kingdom        |
 |     Car-Parrinello (UKCP) Consortium,           |
 |     Daresbury Laboratory and Accelrys, Inc.     |
 |                                                 |
 | Please cite                                     |
 |                                                 |
 |     "First principles methods using CASTEP"     |
 |                                                 |
 |         Zeitschrift fuer Kristallographie       |
 |           220(5-6) pp. 567-570 (2005)           |
 |                                                 |
 | S. J. Clark, M. D. Segall, C. J. Pickard,       |
 | P. J. Hasnip, M. J. Probert, K. Refson,         |
 | M. C. Payne                                     |
 |                                                 |
 |       in all publications arising from          |
 |              your use of CASTEP                 |
 |                                                 |
 +-------------------------------------------------+
 
 
 Compiled for linux_x86_64_ifort15 on Tue, 18 Jul 2017 15:38:41 +0100
 from code version 
 056e886bd5a1+ Castep172_branch Mon, 15 May 2017 14:45:35 +0100
 Compiler: Intel Fortran 15.0.3.187; Optimisation: fast
 MATHLIBS: Intel MKL(11.2.3) (LAPACK version 3.5.0)
 FFT Lib : default
 Fundamental constants values: CODATA 2010
 
 Run started: Thu, 19 Apr 2018 14:39:59 +0100
 
 Pseudo atomic calculation performed for Si 3s2 3p2
 
 Converged in 16 iterations to a total energy of -102.0354 eV
 
 Calculation parallelised over 16 processes.
 Data is distributed by G-vector(8-way) and k-point(2-way)

 ************************************ Title ************************************
 

 ***************************** General Parameters ******************************
  
 output verbosity                               : normal  (1)
 write checkpoint data to                       : Si2.check
 type of calculation                            : band structure
 stress calculation                             : off
 density difference calculation                 : off
 electron localisation func (ELF) calculation   : off
 Hirshfeld analysis                             : off
 unlimited duration calculation
 timing information                             : on
 memory usage estimate                          : on
 write final potential to formatted file        : off
 write final density to formatted file          : on
 write BibTeX reference list                    : on
 write OTFG pseudopotential files               : on
 write electrostatic potential file             : on
 write bands file                               : on
 checkpoint writing                             : both castep_bin and check files
  
 output         length unit                     : A
 output           mass unit                     : amu
 output           time unit                     : ps
 output         charge unit                     : e
 output           spin unit                     : hbar/2
 output         energy unit                     : eV
 output          force unit                     : eV/A
 output       velocity unit                     : A/ps
 output       pressure unit                     : GPa
 output     inv_length unit                     : 1/A
 output      frequency unit                     : cm-1
 output force constant unit                     : eV/A**2
 output         volume unit                     : A**3
 output   IR intensity unit                     : (D/A)**2/amu
 output         dipole unit                     : D
 output         efield unit                     : eV/A/e
 output        entropy unit                     : J/mol/K
  
 wavefunctions paging                           : none
 random number generator seed                   : randomised (143959512)
 data distribution                              : optimal for this architecture
 optimization strategy                          : maximize speed(+++)

 *********************** Exchange-Correlation Parameters ***********************
  
 using functional                               : Local Density Approximation
 relativistic treatment                         : Koelling-Harmon
 DFT+D: Semi-empirical dispersion correction    : off

 ************************* Pseudopotential Parameters **************************
  
 pseudopotential representation                 : reciprocal space
 <beta|phi> representation                      : reciprocal space
 spin-orbit coupling                            : off

 **************************** Basis Set Parameters *****************************
  
 basis set accuracy                             : MEDIUM
 plane wave basis set cut-off                   :   120.0000   eV
 size of standard grid                          :     1.7500
 size of   fine   gmax                          :     9.8213   1/A
 finite basis set correction                    : none

 **************************** Electronic Parameters ****************************
  
 number of  electrons                           :  8.000    
 net charge of system                           :  0.000    
 treating system as non-spin-polarized
 number of bands                                :          4

 ********************* Electronic Minimization Parameters **********************
  
 Method: Treating system as non-metallic,
         and number of  SD  steps               :          1
         and number of  CG  steps               :          4
  
 total energy / atom convergence tol.           : 0.1000E-04   eV
 max force / atom convergence tol.              : ignored
 convergence tolerance window                   :          3   cycles
 max. number of SCF cycles                      :         30
 periodic dipole correction                     : NONE

 *********************** Population Analysis Parameters ************************
  
 Population analysis with cutoff                :  3.000       A

 ************************** Band Structure Parameters **************************
  
 max. number of iterations                      :         60
 max. CG steps in BS calc                       :         25
 number of bands / k-point                      :         14
 band convergence tolerance                     : 0.1000E-05   eV
 write orbitals file                            : on

 *******************************************************************************
  
 
                           -------------------------------
                                      Unit Cell
                           -------------------------------
        Real Lattice(A)                      Reciprocal Lattice(1/A)
   2.6954645   2.6954645   0.0000000        1.1655107   1.1655107  -1.1655107
   2.6954645   0.0000000   2.6954645        1.1655107  -1.1655107   1.1655107
   0.0000000   2.6954645   2.6954645       -1.1655107   1.1655107   1.1655107
 
                       Lattice parameters(A)       Cell Angles
                    a =    3.811962          alpha =   60.000000
                    b =    3.811962          beta  =   60.000000
                    c =    3.811962          gamma =   60.000000
 
                       Current cell volume =   39.167950       A**3
                                   density =    1.434106   AMU/A**3
                                           =    2.381389     g/cm^3
 
                           -------------------------------
                                     Cell Contents
                           -------------------------------
                         Total number of ions in cell =    2
                      Total number of species in cell =    1
                        Max number of any one species =    2
 
            xxxxxxxxxxxxxxxxxxxxxxxxxxxxxxxxxxxxxxxxxxxxxxxxxxxxxxxxxxxx
            x  Element    Atom        Fractional coordinates of atoms  x
            x            Number           u          v          w      x
            x----------------------------------------------------------x
            x  Si           1         0.000000   0.000000   0.000000   x 
            x  Si           2         0.250000   0.250000   0.250000   x 
            xxxxxxxxxxxxxxxxxxxxxxxxxxxxxxxxxxxxxxxxxxxxxxxxxxxxxxxxxxxx
 
 
                         No user defined ionic velocities
 
                           -------------------------------
                                   Details of Species
                           -------------------------------
 
                               Mass of species in AMU
                                    Si   28.0855000
 
                          Electric Quadrupole Moment (Barn)
                                    Si    1.0000000 No Isotope Defined
 
                          Files used for pseudopotentials:
                                    Si /apps/castep/pseudopotentials/Si_00.usp
 
                           -------------------------------
                              k-Points For BZ Sampling
                           -------------------------------
                       MP grid size for SCF calculation is  4  4  4
                            with an offset of   0.000  0.000  0.000
                       Number of kpoints used =            10
 
                           -------------------------------
                               Symmetry and Constraints
                           -------------------------------
 
                      Maximum deviation from symmetry =  0.00000         ANG
 
                      Number of symmetry operations   =          48
                      Number of ionic constraints     =           3
                      Point group of crystal =    32: Oh, m-3m, 4/m -3 2/m
                      Space group of crystal =   227: Fd-3m, F 4d 2 3 -1d
 
             Set iprint > 1 for details on symmetry rotations/translations
 
                         Centre of mass is constrained
             Set iprint > 1 for details of linear ionic constraints
 
                         Number of cell constraints= 5
                         Cell constraints are:  1 1 1 0 0 0
 
                         External pressure/stress (GPa)
                          0.00000   0.00000   0.00000
                                    0.00000   0.00000
                                              0.00000
  
+---------------- MEMORY AND SCRATCH DISK ESTIMATES PER PROCESS --------------+
|                                                     Memory          Disk    |
| Baseline code, static data and system overhead      225.0 MB         0.0 MB |
| BLAS internal memory storage                          0.0 MB         0.0 MB |
| Model and support data                                1.9 MB         0.0 MB |
| Electronic energy minimisation requirements           0.1 MB         0.0 MB |
| Force calculation requirements                        0.0 MB         0.0 MB |
|                                               ----------------------------- |
| Approx. total storage required per process          227.0 MB         0.0 MB |
|                                                                             |
| Requirements will fluctuate during execution and may exceed these estimates |
+-----------------------------------------------------------------------------+
Calculating total energy with cut-off of  120.000 eV.
------------------------------------------------------------------------ <-- SCF
SCF loop      Energy                           Energy gain       Timer   <-- SCF
                                               per atom          (sec)   <-- SCF
------------------------------------------------------------------------ <-- SCF
Initial   1.71149332E+002                                          0.76  <-- SCF
      1  -2.01107739E+002                    1.86128536E+002       0.87  <-- SCF
      2  -2.16017094E+002                    7.45467722E+000       0.98  <-- SCF
      3  -2.16090845E+002                    3.68755260E-002       1.09  <-- SCF
      4  -2.16090976E+002                    6.54796970E-005       1.20  <-- SCF
      5  -2.16090976E+002                    1.62393809E-007       1.32  <-- SCF
      6  -2.16090976E+002                    8.52606552E-010       1.47  <-- SCF
------------------------------------------------------------------------ <-- SCF
 
Final energy =  -216.0909760818     eV
(energy not corrected for finite basis set)
 

Writing analysis data to Si2.castep_bin

Writing model to Si2.check
  
+---------------- MEMORY AND SCRATCH DISK ESTIMATES PER PROCESS --------------+
|                                                     Memory          Disk    |
| Baseline code, static data and system overhead      225.0 MB         0.0 MB |
| BLAS internal memory storage                          0.0 MB         0.0 MB |
| Model and support data                                2.4 MB         0.0 MB |
| Band structure calculation requirements               1.9 MB         0.0 MB |
| Force calculation requirements                        0.0 MB         0.0 MB |
|                                               ----------------------------- |
| Approx. total storage required per process          229.2 MB         0.0 MB |
|                                                                             |
| Requirements will fluctuate during execution and may exceed these estimates |
+-----------------------------------------------------------------------------+
  =====================================================================
  +  Fermi energy for spin-degenerate system:     6.06222 eV          +
  +                                                                   +
  +       B A N D   S T R U C T U R E   C A L C U L A T I O N         +
  +      (General k-point calculation - complex wavefunctions)        +
  +                                                                   +
  + Calculation re-parallelised over 16 processes.                    +
  + Data distributed by G-vector(8-way), k-point(2-way)               +
  +                                                                   +
  + ================================================================= +
  +                                                                   +
  +     Band Structure Calculation: Progress report on root process   +
  +                                                                   +
  +   There are  182 BS k-points. Root process contains   91 of them. +
  +                                                                   +
  +   Spin= 1 of  1, K-point=   1 of   91 completed, Time:     0.47s. +
  +   Spin= 1 of  1, K-point=   2 of   91 completed, Time:     0.43s. +
  +   Spin= 1 of  1, K-point=   3 of   91 completed, Time:     0.39s. +
  +   Spin= 1 of  1, K-point=   4 of   91 completed, Time:     0.42s. +
  +   Spin= 1 of  1, K-point=   5 of   91 completed, Time:     0.43s. +
  +   Spin= 1 of  1, K-point=   6 of   91 completed, Time:     0.43s. +
  +   Spin= 1 of  1, K-point=   7 of   91 completed, Time:     0.44s. +
  +   Spin= 1 of  1, K-point=   8 of   91 completed, Time:     0.47s. +
  +   Spin= 1 of  1, K-point=   9 of   91 completed, Time:     0.43s. +
  +   Spin= 1 of  1, K-point=  10 of   91 completed, Time:     0.43s. +
  +   Spin= 1 of  1, K-point=  11 of   91 completed, Time:     0.44s. +
  +   Spin= 1 of  1, K-point=  12 of   91 completed, Time:     0.42s. +
  +   Spin= 1 of  1, K-point=  13 of   91 completed, Time:     0.43s. +
  +   Spin= 1 of  1, K-point=  14 of   91 completed, Time:     0.42s. +
  +   Spin= 1 of  1, K-point=  15 of   91 completed, Time:     0.47s. +
  +   Spin= 1 of  1, K-point=  16 of   91 completed, Time:     0.46s. +
  +   Spin= 1 of  1, K-point=  17 of   91 completed, Time:     0.41s. +
  +   Spin= 1 of  1, K-point=  18 of   91 completed, Time:     0.42s. +
  +   Spin= 1 of  1, K-point=  19 of   91 completed, Time:     0.43s. +
  +   Spin= 1 of  1, K-point=  20 of   91 completed, Time:     0.43s. +
  +   Spin= 1 of  1, K-point=  21 of   91 completed, Time:     0.45s. +
  +   Spin= 1 of  1, K-point=  22 of   91 completed, Time:     0.42s. +
  +   Spin= 1 of  1, K-point=  23 of   91 completed, Time:     0.44s. +
  +   Spin= 1 of  1, K-point=  24 of   91 completed, Time:     0.44s. +
  +   Spin= 1 of  1, K-point=  25 of   91 completed, Time:     0.43s. +
  +   Spin= 1 of  1, K-point=  26 of   91 completed, Time:     0.43s. +
  +   Spin= 1 of  1, K-point=  27 of   91 completed, Time:     0.43s. +
  +   Spin= 1 of  1, K-point=  28 of   91 completed, Time:     0.43s. +
  +   Spin= 1 of  1, K-point=  29 of   91 completed, Time:     0.44s. +
  +   Spin= 1 of  1, K-point=  30 of   91 completed, Time:     0.43s. +
  +   Spin= 1 of  1, K-point=  31 of   91 completed, Time:     0.44s. +
  +   Spin= 1 of  1, K-point=  32 of   91 completed, Time:     0.42s. +
  +   Spin= 1 of  1, K-point=  33 of   91 completed, Time:     0.42s. +
  +   Spin= 1 of  1, K-point=  34 of   91 completed, Time:     0.43s. +
  +   Spin= 1 of  1, K-point=  35 of   91 completed, Time:     0.45s. +
  +   Spin= 1 of  1, K-point=  36 of   91 completed, Time:     0.45s. +
  +   Spin= 1 of  1, K-point=  37 of   91 completed, Time:     0.42s. +
  +   Spin= 1 of  1, K-point=  38 of   91 completed, Time:     0.42s. +
  +   Spin= 1 of  1, K-point=  39 of   91 completed, Time:     0.40s. +
  +   Spin= 1 of  1, K-point=  40 of   91 completed, Time:     0.40s. +
  +   Spin= 1 of  1, K-point=  41 of   91 completed, Time:     0.42s. +
  +   Spin= 1 of  1, K-point=  42 of   91 completed, Time:     0.46s. +
  +   Spin= 1 of  1, K-point=  43 of   91 completed, Time:     0.43s. +
  +   Spin= 1 of  1, K-point=  44 of   91 completed, Time:     0.43s. +
  +   Spin= 1 of  1, K-point=  45 of   91 completed, Time:     0.43s. +
  +   Spin= 1 of  1, K-point=  46 of   91 completed, Time:     0.43s. +
  +   Spin= 1 of  1, K-point=  47 of   91 completed, Time:     0.45s. +
  +   Spin= 1 of  1, K-point=  48 of   91 completed, Time:     0.46s. +
  +   Spin= 1 of  1, K-point=  49 of   91 completed, Time:     0.43s. +
  +   Spin= 1 of  1, K-point=  50 of   91 completed, Time:     0.42s. +
  +   Spin= 1 of  1, K-point=  51 of   91 completed, Time:     0.47s. +
  +   Spin= 1 of  1, K-point=  52 of   91 completed, Time:     0.42s. +
  +   Spin= 1 of  1, K-point=  53 of   91 completed, Time:     0.42s. +
  +   Spin= 1 of  1, K-point=  54 of   91 completed, Time:     0.45s. +
  +   Spin= 1 of  1, K-point=  55 of   91 completed, Time:     0.44s. +
  +   Spin= 1 of  1, K-point=  56 of   91 completed, Time:     0.43s. +
  +   Spin= 1 of  1, K-point=  57 of   91 completed, Time:     0.43s. +
  +   Spin= 1 of  1, K-point=  58 of   91 completed, Time:     0.40s. +
  +   Spin= 1 of  1, K-point=  59 of   91 completed, Time:     0.42s. +
  +   Spin= 1 of  1, K-point=  60 of   91 completed, Time:     0.43s. +
  +   Spin= 1 of  1, K-point=  61 of   91 completed, Time:     0.43s. +
  +   Spin= 1 of  1, K-point=  62 of   91 completed, Time:     0.44s. +
  +   Spin= 1 of  1, K-point=  63 of   91 completed, Time:     0.45s. +
  +   Spin= 1 of  1, K-point=  64 of   91 completed, Time:     0.46s. +
  +   Spin= 1 of  1, K-point=  65 of   91 completed, Time:     0.43s. +
  +   Spin= 1 of  1, K-point=  66 of   91 completed, Time:     0.45s. +
  +   Spin= 1 of  1, K-point=  67 of   91 completed, Time:     0.44s. +
  +   Spin= 1 of  1, K-point=  68 of   91 completed, Time:     0.41s. +
  +   Spin= 1 of  1, K-point=  69 of   91 completed, Time:     0.44s. +
  +   Spin= 1 of  1, K-point=  70 of   91 completed, Time:     0.42s. +
  +   Spin= 1 of  1, K-point=  71 of   91 completed, Time:     0.41s. +
  +   Spin= 1 of  1, K-point=  72 of   91 completed, Time:     0.42s. +
  +   Spin= 1 of  1, K-point=  73 of   91 completed, Time:     0.46s. +
  +   Spin= 1 of  1, K-point=  74 of   91 completed, Time:     0.46s. +
  +   Spin= 1 of  1, K-point=  75 of   91 completed, Time:     0.45s. +
  +   Spin= 1 of  1, K-point=  76 of   91 completed, Time:     0.42s. +
  +   Spin= 1 of  1, K-point=  77 of   91 completed, Time:     0.46s. +
  +   Spin= 1 of  1, K-point=  78 of   91 completed, Time:     0.44s. +
  +   Spin= 1 of  1, K-point=  79 of   91 completed, Time:     0.42s. +
  +   Spin= 1 of  1, K-point=  80 of   91 completed, Time:     0.42s. +
  +   Spin= 1 of  1, K-point=  81 of   91 completed, Time:     0.43s. +
  +   Spin= 1 of  1, K-point=  82 of   91 completed, Time:     0.45s. +
  +   Spin= 1 of  1, K-point=  83 of   91 completed, Time:     0.42s. +
  +   Spin= 1 of  1, K-point=  84 of   91 completed, Time:     0.46s. +
  +   Spin= 1 of  1, K-point=  85 of   91 completed, Time:     0.46s. +
  +   Spin= 1 of  1, K-point=  86 of   91 completed, Time:     0.46s. +
  +   Spin= 1 of  1, K-point=  87 of   91 completed, Time:     0.44s. +
  +   Spin= 1 of  1, K-point=  88 of   91 completed, Time:     0.43s. +
  +   Spin= 1 of  1, K-point=  89 of   91 completed, Time:     0.46s. +
  +   Spin= 1 of  1, K-point=  90 of   91 completed, Time:     0.44s. +
  +   Spin= 1 of  1, K-point=  91 of   91 completed, Time:     0.41s. +
  +   Finished BS calculation on root process (waiting for others).   +
  +                                                                   +
  + ================================================================= +
  +                       Electronic energies                         +
  +                       -------------------                         +
  +                                                                   +
  +   Band number   Energy in eV                                      +
  + ================================================================= +
  +                                                                   +
  + ----------------------------------------------------------------- +
  +  Spin=1 kpt=    1 ( -0.458333 -0.375000 -0.208333) kpt-group=  1  +
  + ----------------------------------------------------------------- +
  +                                                                   +
  +           1       -3.636914                                       +
  +           2        0.815457                                       +
  +           3        3.218585                                       +
  +           4        4.251161                                       +
  +           5        8.556117                                       +
  +           6       10.577960                                       +
  +           7       10.879092                                       +
  +           8       12.547954                                       +
  +           9       16.126997                                       +
  +          10       17.018901                                       +
  +          11       18.683393                                       +
  +          12       18.929484                                       +
  +          13       20.671479                                       +
  +          14       21.855491                                       +
  + ----------------------------------------------------------------- +
  +  Spin=1 kpt=    2 ( -0.458333 -0.208333  0.458333) kpt-group=  1  +
  + ----------------------------------------------------------------- +
  +                                                                   +
  +           1       -2.725255                                       +
  +           2       -0.074190                                       +
  +           3        2.534745                                       +
  +           4        3.622550                                       +
  +           5        8.144343                                       +
  +           6       10.006060                                       +
  +           7       12.079433                                       +
  +           8       14.119753                                       +
  +           9       15.985131                                       +
  +          10       18.012922                                       +
  +          11       18.657973                                       +
  +          12       20.270518                                       +
  +          13       20.835757                                       +
  +          14       22.490615                                       +
  + ----------------------------------------------------------------- +
  +  Spin=1 kpt=    3 ( -0.458333 -0.041667 -0.208333) kpt-group=  1  +
  + ----------------------------------------------------------------- +
  +                                                                   +
  +           1       -3.552322                                       +
  +           2        0.461416                                       +
  +           3        3.490428                                       +
  +           4        4.353871                                       +
  +           5        8.365998                                       +
  +           6       10.830452                                       +
  +           7       11.348182                                       +
  +           8       11.817146                                       +
  +           9       16.520619                                       +
  +          10       17.066627                                       +
  +          11       18.407723                                       +
  +          12       18.682216                                       +
  +          13       19.868812                                       +
  +          14       22.588469                                       +
  + ----------------------------------------------------------------- +
  +  Spin=1 kpt=    4 ( -0.458333 -0.041667 -0.041667) kpt-group=  1  +
  + ----------------------------------------------------------------- +
  +                                                                   +
  +           1       -3.547643                                       +
  +           2       -0.335709                                       +
  +           3        4.922946                                       +
  +           4        5.178667                                       +
  +           5        8.212781                                       +
  +           6        9.782360                                       +
  +           7        9.792625                                       +
  +           8       14.103001                                       +
  +           9       15.856427                                       +
  +          10       16.299117                                       +
  +          11       17.549645                                       +
  +          12       18.735075                                       +
  +          13       19.857844                                       +
  +          14       20.324652                                       +
  + ----------------------------------------------------------------- +
  +  Spin=1 kpt=    5 ( -0.458333 -0.041667  0.291667) kpt-group=  1  +
  + ----------------------------------------------------------------- +
  +                                                                   +
  +           1       -2.272824                                       +
  +           2       -0.568976                                       +
  +           3        2.136593                                       +
  +           4        3.822668                                       +
  +           5        7.770417                                       +
  +           6       10.647850                                       +
  +           7       12.824962                                       +
  +           8       13.930882                                       +
  +           9       15.336064                                       +
  +          10       16.654068                                       +
  +          11       20.068030                                       +
  +          12       20.570011                                       +
  +          13       21.391237                                       +
  +          14       23.502021                                       +
  + ----------------------------------------------------------------- +
  +  Spin=1 kpt=    6 ( -0.458333  0.125000 -0.291667) kpt-group=  1  +
  + ----------------------------------------------------------------- +
  +                                                                   +
  +           1       -2.216719                                       +
  +           2       -0.527689                                       +
  +           3        2.549156                                       +
  +           4        3.084190                                       +
  +           5        8.467376                                       +
  +           6        9.159068                                       +
  +           7       12.746743                                       +
  +           8       15.009471                                       +
  +           9       15.943301                                       +
  +          10       18.054571                                       +
  +          11       19.028972                                       +
  +          12       20.770199                                       +
  +          13       21.803171                                       +
  +          14       22.315400                                       +
  + ----------------------------------------------------------------- +
  +  Spin=1 kpt=    7 ( -0.458333  0.208333  0.041667) kpt-group=  1  +
  + ----------------------------------------------------------------- +
  +                                                                   +
  +           1       -2.989374                                       +
  +           2       -0.397959                                       +
  +           3        3.168106                                       +
  +           4        4.393059                                       +
  +           5        8.452952                                       +
  +           6       10.583225                                       +
  +           7       11.605921                                       +
  +           8       12.799876                                       +
  +           9       15.675645                                       +
  +          10       17.013244                                       +
  +          11       18.338843                                       +
  +          12       18.895152                                       +
  +          13       20.138325                                       +
  +          14       23.250445                                       +
  + ----------------------------------------------------------------- +
  +  Spin=1 kpt=    8 ( -0.458333  0.375000  0.458333) kpt-group=  1  +
  + ----------------------------------------------------------------- +
  +                                                                   +
  +           1       -3.180457                                       +
  +           2       -0.452630                                       +
  +           3        3.711906                                       +
  +           4        4.682485                                       +
  +           5        9.037237                                       +
  +           6        9.501220                                       +
  +           7       10.946496                                       +
  +           8       13.932442                                       +
  +           9       15.244204                                       +
  +          10       16.595350                                       +
  +          11       17.723316                                       +
  +          12       19.189248                                       +
  +          13       20.104507                                       +
  +          14       21.801561                                       +
  + ----------------------------------------------------------------- +
  +  Spin=1 kpt=    9 ( -0.458333  0.458333  0.458333) kpt-group=  1  +
  + ----------------------------------------------------------------- +
  +                                                                   +
  +           1       -3.240755                                       +
  +           2       -0.658786                                       +
  +           3        4.477577                                       +
  +           4        5.001640                                       +
  +           5        8.512677                                       +
  +           6        9.687980                                       +
  +           7       10.032444                                       +
  +           8       14.315095                                       +
  +           9       16.178289                                       +
  +          10       16.558894                                       +
  +          11       17.597505                                       +
  +          12       19.098581                                       +
  +          13       19.325062                                       +
  +          14       20.064563                                       +
  + ----------------------------------------------------------------- +
  +  Spin=1 kpt=   10 ( -0.375000 -0.458333 -0.041667) kpt-group=  1  +
  + ----------------------------------------------------------------- +
  +                                                                   +
  +           1       -2.954590                                       +
  +           2        0.202553                                       +
  +           3        3.265174                                       +
  +           4        3.568403                                       +
  +           5        7.278817                                       +
  +           6        8.068612                                       +
  +           7       14.127844                                       +
  +           8       14.925894                                       +
  +           9       17.699167                                       +
  +          10       18.296289                                       +
  +          11       18.536581                                       +
  +          12       19.561200                                       +
  +          13       20.939258                                       +
  +          14       22.135891                                       +
  + ----------------------------------------------------------------- +
  +  Spin=1 kpt=   11 ( -0.375000 -0.208333 -0.041667) kpt-group=  1  +
  + ----------------------------------------------------------------- +
  +                                                                   +
  +           1       -4.188438                                       +
  +           2        1.645763                                       +
  +           3        3.880199                                       +
  +           4        4.500080                                       +
  +           5        8.281423                                       +
  +           6       10.308707                                       +
  +           7       11.101690                                       +
  +           8       11.943437                                       +
  +           9       15.639901                                       +
  +          10       16.789346                                       +
  +          11       17.132122                                       +
  +          12       19.470997                                       +
  +          13       20.667900                                       +
  +          14       22.087958                                       +
  + ----------------------------------------------------------------- +
  +  Spin=1 kpt=   12 ( -0.375000 -0.041667 -0.375000) kpt-group=  1  +
  + ----------------------------------------------------------------- +
  +                                                                   +
  +           1       -3.519505                                       +
  +           2        0.966564                                       +
  +           3        3.680356                                       +
  +           4        3.776354                                       +
  +           5        7.066720                                       +
  +           6        8.165104                                       +
  +           7       14.112190                                       +
  +           8       14.131453                                       +
  +           9       16.933713                                       +
  +          10       17.129093                                       +
  +          11       19.429564                                       +
  +          12       20.307062                                       +
  +          13       20.668933                                       +
  +          14       21.934102                                       +
  + ----------------------------------------------------------------- +
  +  Spin=1 kpt=   13 ( -0.375000  0.291667  0.041667) kpt-group=  1  +
  + ----------------------------------------------------------------- +
  +                                                                   +
  +           1       -2.481626                                       +
  +           2       -0.485706                                       +
  +           3        2.131327                                       +
  +           4        4.141236                                       +
  +           5        8.141015                                       +
  +           6       11.767286                                       +
  +           7       12.513861                                       +
  +           8       13.008809                                       +
  +           9       14.332931                                       +
  +          10       15.726290                                       +
  +          11       19.557092                                       +
  +          12       20.833134                                       +
  +          13       22.101884                                       +
  +          14       23.493413                                       +
  + ----------------------------------------------------------------- +
  +  Spin=1 kpt=   14 ( -0.375000  0.375000 -0.458333) kpt-group=  1  +
  + ----------------------------------------------------------------- +
  +                                                                   +
  +           1       -2.764604                                       +
  +           2       -0.474407                                       +
  +           3        2.723871                                       +
  +           4        4.212813                                       +
  +           5        8.869580                                       +
  +           6       10.253307                                       +
  +           7       12.350341                                       +
  +           8       13.575930                                       +
  +           9       14.014518                                       +
  +          10       16.701194                                       +
  +          11       18.401498                                       +
  +          12       19.636959                                       +
  +          13       22.145757                                       +
  +          14       22.740459                                       +
  + ----------------------------------------------------------------- +
  +  Spin=1 kpt=   15 ( -0.375000  0.375000  0.375000) kpt-group=  1  +
  + ----------------------------------------------------------------- +
  +                                                                   +
  +           1       -2.726477                                       +
  +           2       -0.328595                                       +
  +           3        2.252337                                       +
  +           4        4.412741                                       +
  +           5        8.202319                                       +
  +           6       11.941226                                       +
  +           7       11.956228                                       +
  +           8       13.450025                                       +
  +           9       14.500193                                       +
  +          10       14.639686                                       +
  +          11       19.077951                                       +
  +          12       21.594124                                       +
  +          13       21.959136                                       +
  +          14       22.956571                                       +
  + ----------------------------------------------------------------- +
  +  Spin=1 kpt=   16 ( -0.375000  0.458333 -0.041667) kpt-group=  1  +
  + ----------------------------------------------------------------- +
  +                                                                   +
  +           1       -2.303519                                       +
  +           2       -0.514220                                       +
  +           3        2.521371                                       +
  +           4        3.586161                                       +
  +           5        7.486976                                       +
  +           6        9.020548                                       +
  +           7       13.851942                                       +
  +           8       14.919057                                       +
  +           9       16.418631                                       +
  +          10       17.645057                                       +
  +          11       19.251945                                       +
  +          12       20.387303                                       +
  +          13       21.632558                                       +
  +          14       22.313310                                       +
  + ----------------------------------------------------------------- +
  +  Spin=1 kpt=   17 ( -0.375000  0.458333  0.458333) kpt-group=  1  +
  + ----------------------------------------------------------------- +
  +                                                                   +
  +           1       -3.001469                                       +
  +           2       -0.547339                                       +
  +           3        3.392944                                       +
  +           4        4.608190                                       +
  +           5        8.477924                                       +
  +           6       10.525491                                       +
  +           7       10.936412                                       +
  +           8       13.673527                                       +
  +           9       15.509584                                       +
  +          10       16.429743                                       +
  +          11       17.903464                                       +
  +          12       19.556011                                       +
  +          13       19.988963                                       +
  +          14       22.202758                                       +
  + ----------------------------------------------------------------- +
  +  Spin=1 kpt=   18 ( -0.291667 -0.458333 -0.375000) kpt-group=  1  +
  + ----------------------------------------------------------------- +
  +                                                                   +
  +           1       -3.738748                                       +
  +           2        0.441059                                       +
  +           3        3.788497                                       +
  +           4        4.870013                                       +
  +           5        9.061666                                       +
  +           6        9.692996                                       +
  +           7       11.028794                                       +
  +           8       12.595456                                       +
  +           9       15.347753                                       +
  +          10       16.143208                                       +
  +          11       18.364095                                       +
  +          12       18.579233                                       +
  +          13       20.738817                                       +
  +          14       22.351057                                       +
  + ----------------------------------------------------------------- +
  +  Spin=1 kpt=   19 ( -0.291667 -0.458333  0.375000) kpt-group=  1  +
  + ----------------------------------------------------------------- +
  +                                                                   +
  +           1       -2.469188                                       +
  +           2       -0.387712                                       +
  +           3        2.255628                                       +
  +           4        3.537043                                       +
  +           5        9.684726                                       +
  +           6       10.063425                                       +
  +           7       11.945256                                       +
  +           8       13.716176                                       +
  +           9       14.114445                                       +
  +          10       17.418972                                       +
  +          11       19.100371                                       +
  +          12       20.060450                                       +
  +          13       22.710728                                       +
  +          14       23.107271                                       +
  + ----------------------------------------------------------------- +
  +  Spin=1 kpt=   20 ( -0.291667 -0.375000 -0.291667) kpt-group=  1  +
  + ----------------------------------------------------------------- +
  +                                                                   +
  +           1       -4.328052                                       +
  +           2        1.216367                                       +
  +           3        4.526573                                       +
  +           4        5.491423                                       +
  +           5        8.792034                                       +
  +           6        9.922801                                       +
  +           7       10.099641                                       +
  +           8       13.444566                                       +
  +           9       13.661503                                       +
  +          10       15.576224                                       +
  +          11       16.421794                                       +
  +          12       19.514190                                       +
  +          13       21.090047                                       +
  +          14       22.918798                                       +
  + ----------------------------------------------------------------- +
  +  Spin=1 kpt=   21 ( -0.291667 -0.375000 -0.041667) kpt-group=  1  +
  + ----------------------------------------------------------------- +
  +                                                                   +
  +           1       -3.944326                                       +
  +           2        1.569446                                       +
  +           3        3.697662                                       +
  +           4        4.027717                                       +
  +           5        7.530898                                       +
  +           6        8.912674                                       +
  +           7       12.645753                                       +
  +           8       13.263419                                       +
  +           9       16.130906                                       +
  +          10       16.958433                                       +
  +          11       18.493650                                       +
  +          12       19.977830                                       +
  +          13       20.693659                                       +
  +          14       21.744074                                       +
  + ----------------------------------------------------------------- +
  +  Spin=1 kpt=   22 ( -0.291667 -0.375000  0.125000) kpt-group=  1  +
  + ----------------------------------------------------------------- +
  +                                                                   +
  +           1       -2.867707                                       +
  +           2        0.132470                                       +
  +           3        2.957913                                       +
  +           4        3.451187                                       +
  +           5        7.816596                                       +
  +           6        8.633975                                       +
  +           7       13.106159                                       +
  +           8       14.909767                                       +
  +           9       17.117211                                       +
  +          10       17.573536                                       +
  +          11       19.286906                                       +
  +          12       19.910272                                       +
  +          13       21.071650                                       +
  +          14       21.631692                                       +
  + ----------------------------------------------------------------- +
  +  Spin=1 kpt=   23 ( -0.291667 -0.208333 -0.291667) kpt-group=  1  +
  + ----------------------------------------------------------------- +
  +                                                                   +
  +           1       -4.719258                                       +
  +           2        2.148717                                       +
  +           3        5.094607                                       +
  +           4        5.232169                                       +
  +           5        8.779244                                       +
  +           6        9.682513                                       +
  +           7       10.537528                                       +
  +           8       12.074751                                       +
  +           9       14.592473                                       +
  +          10       14.822928                                       +
  +          11       15.697207                                       +
  +          12       18.632377                                       +
  +          13       21.017723                                       +
  +          14       22.330005                                       +
  + ----------------------------------------------------------------- +
  +  Spin=1 kpt=   24 ( -0.291667  0.041667  0.375000) kpt-group=  1  +
  + ----------------------------------------------------------------- +
  +                                                                   +
  +           1       -2.378517                                       +
  +           2       -0.444913                                       +
  +           3        1.850262                                       +
  +           4        4.087013                                       +
  +           5        8.071934                                       +
  +           6       12.161666                                       +
  +           7       12.659783                                       +
  +           8       13.436582                                       +
  +           9       13.873655                                       +
  +          10       14.996926                                       +
  +          11       20.606151                                       +
  +          12       21.462415                                       +
  +          13       22.191718                                       +
  +          14       23.075949                                       +
  + ----------------------------------------------------------------- +
  +  Spin=1 kpt=   25 ( -0.291667  0.291667 -0.291667) kpt-group=  1  +
  + ----------------------------------------------------------------- +
  +                                                                   +
  +           1       -2.354083                                       +
  +           2       -0.561506                                       +
  +           3        2.083670                                       +
  +           4        4.066910                                       +
  +           5        7.794275                                       +
  +           6       11.495359                                       +
  +           7       12.832361                                       +
  +           8       12.974647                                       +
  +           9       15.388272                                       +
  +          10       15.596367                                       +
  +          11       20.027662                                       +
  +          12       21.058872                                       +
  +          13       21.134770                                       +
  +          14       24.007900                                       +
  + ----------------------------------------------------------------- +
  +  Spin=1 kpt=   26 ( -0.208333 -0.458333  0.208333) kpt-group=  1  +
  + ----------------------------------------------------------------- +
  +                                                                   +
  +           1       -1.985932                                       +
  +           2       -0.681595                                       +
  +           3        2.121672                                       +
  +           4        2.942436                                       +
  +           5       10.132627                                       +
  +           6       10.491417                                       +
  +           7       11.189390                                       +
  +           8       12.847992                                       +
  +           9       15.828563                                       +
  +          10       17.660554                                       +
  +          11       19.400625                                       +
  +          12       20.949685                                       +
  +          13       21.903143                                       +
  +          14       23.548412                                       +
  + ----------------------------------------------------------------- +
  +  Spin=1 kpt=   27 ( -0.208333  0.041667  0.125000) kpt-group=  1  +
  + ----------------------------------------------------------------- +
  +                                                                   +
  +           1       -4.664468                                       +
  +           2        2.150132                                       +
  +           3        4.361091                                       +
  +           4        5.594048                                       +
  +           5        9.114744                                       +
  +           6        9.713013                                       +
  +           7       10.472122                                       +
  +           8       12.126393                                       +
  +           9       13.520942                                       +
  +          10       15.805938                                       +
  +          11       16.144067                                       +
  +          12       18.570166                                       +
  +          13       20.712191                                       +
  +          14       22.549440                                       +
  + ----------------------------------------------------------------- +
  +  Spin=1 kpt=   28 ( -0.208333  0.041667  0.291667) kpt-group=  1  +
  + ----------------------------------------------------------------- +
  +                                                                   +
  +           1       -3.608025                                       +
  +           2        0.804629                                       +
  +           3        2.559384                                       +
  +           4        4.893104                                       +
  +           5        8.979904                                       +
  +           6       10.737837                                       +
  +           7       11.868936                                       +
  +           8       12.215336                                       +
  +           9       13.652415                                       +
  +          10       16.175894                                       +
  +          11       18.987399                                       +
  +          12       19.947082                                       +
  +          13       20.302827                                       +
  +          14       23.240912                                       +
  + ----------------------------------------------------------------- +
  +  Spin=1 kpt=   29 ( -0.208333  0.041667  0.458333) kpt-group=  1  +
  + ----------------------------------------------------------------- +
  +                                                                   +
  +           1       -2.701483                                       +
  +           2       -0.480924                                       +
  +           3        2.601094                                       +
  +           4        4.240724                                       +
  +           5        8.266147                                       +
  +           6       11.173587                                       +
  +           7       12.250517                                       +
  +           8       12.661374                                       +
  +           9       15.094929                                       +
  +          10       16.467780                                       +
  +          11       18.709291                                       +
  +          12       19.843199                                       +
  +          13       21.165949                                       +
  +          14       23.725792                                       +
  + ----------------------------------------------------------------- +
  +  Spin=1 kpt=   30 ( -0.208333  0.125000  0.208333) kpt-group=  1  +
  + ----------------------------------------------------------------- +
  +                                                                   +
  +           1       -4.031511                                       +
  +           2        1.246457                                       +
  +           3        3.592127                                       +
  +           4        4.698438                                       +
  +           5        8.815045                                       +
  +           6       10.333018                                       +
  +           7       11.004754                                       +
  +           8       11.809232                                       +
  +           9       15.166375                                       +
  +          10       16.824682                                       +
  +          11       17.718899                                       +
  +          12       19.151671                                       +
  +          13       20.730120                                       +
  +          14       22.054471                                       +
  + ----------------------------------------------------------------- +
  +  Spin=1 kpt=   31 ( -0.208333  0.125000  0.375000) kpt-group=  1  +
  + ----------------------------------------------------------------- +
  +                                                                   +
  +           1       -2.837152                                       +
  +           2        0.060487                                       +
  +           3        2.177753                                       +
  +           4        3.903414                                       +
  +           5        9.483780                                       +
  +           6       10.421750                                       +
  +           7       11.486788                                       +
  +           8       13.864624                                       +
  +           9       14.563604                                       +
  +          10       15.716442                                       +
  +          11       20.005112                                       +
  +          12       20.934457                                       +
  +          13       21.425875                                       +
  +          14       22.396314                                       +
  + ----------------------------------------------------------------- +
  +  Spin=1 kpt=   32 ( -0.208333  0.208333 -0.208333) kpt-group=  1  +
  + ----------------------------------------------------------------- +
  +                                                                   +
  +           1       -3.689536                                       +
  +           2        0.814596                                       +
  +           3        3.510059                                       +
  +           4        4.248662                                       +
  +           5        8.067461                                       +
  +           6       10.524543                                       +
  +           7       11.551123                                       +
  +           8       11.996452                                       +
  +           9       17.045342                                       +
  +          10       17.314483                                       +
  +          11       17.560762                                       +
  +          12       19.375208                                       +
  +          13       19.874102                                       +
  +          14       22.256622                                       +
  + ----------------------------------------------------------------- +
  +  Spin=1 kpt=   33 ( -0.208333  0.291667 -0.208333) kpt-group=  1  +
  + ----------------------------------------------------------------- +
  +                                                                   +
  +           1       -3.061476                                       +
  +           2       -0.171525                                       +
  +           3        3.068429                                       +
  +           4        4.300146                                       +
  +           5        8.138144                                       +
  +           6       11.325486                                       +
  +           7       11.695121                                       +
  +           8       11.927814                                       +
  +           9       16.355701                                       +
  +          10       17.359805                                       +
  +          11       18.719869                                       +
  +          12       18.892849                                       +
  +          13       19.365375                                       +
  +          14       23.798807                                       +
  + ----------------------------------------------------------------- +
  +  Spin=1 kpt=   34 ( -0.208333  0.291667  0.291667) kpt-group=  1  +
  + ----------------------------------------------------------------- +
  +                                                                   +
  +           1       -2.776592                                       +
  +           2       -0.067027                                       +
  +           3        2.566711                                       +
  +           4        3.893021                                       +
  +           5        7.600193                                       +
  +           6        9.961112                                       +
  +           7       13.121133                                       +
  +           8       13.191195                                       +
  +           9       17.032744                                       +
  +          10       17.464087                                       +
  +          11       19.277102                                       +
  +          12       19.451392                                       +
  +          13       20.253259                                       +
  +          14       23.253766                                       +
  + ----------------------------------------------------------------- +
  +  Spin=1 kpt=   35 ( -0.208333  0.458333 -0.291667) kpt-group=  1  +
  + ----------------------------------------------------------------- +
  +                                                                   +
  +           1       -3.235529                                       +
  +           2        0.424263                                       +
  +           3        2.335892                                       +
  +           4        4.431648                                       +
  +           5        9.153447                                       +
  +           6       10.565703                                       +
  +           7       11.790361                                       +
  +           8       12.876817                                       +
  +           9       14.655140                                       +
  +          10       15.411097                                       +
  +          11       19.438217                                       +
  +          12       20.603484                                       +
  +          13       21.007735                                       +
  +          14       22.600269                                       +
  + ----------------------------------------------------------------- +
  +  Spin=1 kpt=   36 ( -0.208333  0.458333 -0.125000) kpt-group=  1  +
  + ----------------------------------------------------------------- +
  +                                                                   +
  +           1       -3.194973                                       +
  +           2       -0.169492                                       +
  +           3        3.188217                                       +
  +           4        4.557598                                       +
  +           5        9.239377                                       +
  +           6        9.630494                                       +
  +           7       11.602587                                       +
  +           8       13.189293                                       +
  +           9       15.335568                                       +
  +          10       16.022416                                       +
  +          11       17.871078                                       +
  +          12       20.261730                                       +
  +          13       20.471817                                       +
  +          14       22.654376                                       +
  + ----------------------------------------------------------------- +
  +  Spin=1 kpt=   37 ( -0.125000  0.375000 -0.375000) kpt-group=  1  +
  + ----------------------------------------------------------------- +
  +                                                                   +
  +           1       -2.163648                                       +
  +           2       -0.591824                                       +
  +           3        2.170420                                       +
  +           4        3.301794                                       +
  +           5        8.763884                                       +
  +           6       10.708938                                       +
  +           7       11.752798                                       +
  +           8       13.953740                                       +
  +           9       15.074634                                       +
  +          10       17.901998                                       +
  +          11       18.952156                                       +
  +          12       20.798075                                       +
  +          13       22.282131                                       +
  +          14       23.002985                                       +
  + ----------------------------------------------------------------- +
  +  Spin=1 kpt=   38 ( -0.041667 -0.291667  0.125000) kpt-group=  1  +
  + ----------------------------------------------------------------- +
  +                                                                   +
  +           1       -4.154176                                       +
  +           2        1.256866                                       +
  +           3        3.619544                                       +
  +           4        5.292435                                       +
  +           5        9.270780                                       +
  +           6        9.875070                                       +
  +           7       10.834134                                       +
  +           8       12.332856                                       +
  +           9       13.748625                                       +
  +          10       16.399518                                       +
  +          11       17.724599                                       +
  +          12       18.942094                                       +
  +          13       20.776206                                       +
  +          14       22.245653                                       +
  + ----------------------------------------------------------------- +
  +  Spin=1 kpt=   39 ( -0.041667 -0.208333 -0.125000) kpt-group=  1  +
  + ----------------------------------------------------------------- +
  +                                                                   +
  +           1       -5.253054                                       +
  +           2        4.078789                                       +
  +           3        5.113863                                       +
  +           4        5.698432                                       +
  +           5        8.601318                                       +
  +           6        9.872375                                       +
  +           7       10.319446                                       +
  +           8       11.394540                                       +
  +           9       13.234594                                       +
  +          10       14.611440                                       +
  +          11       15.806122                                       +
  +          12       17.723512                                       +
  +          13       18.764084                                       +
  +          14       20.136456                                       +
  + ----------------------------------------------------------------- +
  +  Spin=1 kpt=   40 ( -0.041667 -0.041667 -0.041667) kpt-group=  1  +
  + ----------------------------------------------------------------- +
  +                                                                   +
  +           1       -5.666612                                       +
  +           2        6.122252                                       +
  +           3        6.339358                                       +
  +           4        6.342986                                       +
  +           5        8.980316                                       +
  +           6        8.983166                                       +
  +           7        8.984157                                       +
  +           8       10.030423                                       +
  +           9       14.297448                                       +
  +          10       14.347221                                       +
  +          11       14.347526                                       +
  +          12       17.626695                                       +
  +          13       17.900036                                       +
  +          14       17.902545                                       +
  + ----------------------------------------------------------------- +
  +  Spin=1 kpt=   41 ( -0.041667  0.041667 -0.041667) kpt-group=  1  +
  + ----------------------------------------------------------------- +
  +                                                                   +
  +           1       -5.613400                                       +
  +           2        5.680910                                       +
  +           3        6.092680                                       +
  +           4        6.214483                                       +
  +           5        8.838502                                       +
  +           6        9.209887                                       +
  +           7        9.292117                                       +
  +           8       10.401592                                       +
  +           9       13.889593                                       +
  +          10       14.421600                                       +
  +          11       14.552111                                       +
  +          12       17.582735                                       +
  +          13       17.991667                                       +
  +          14       18.354435                                       +
  + ----------------------------------------------------------------- +
  +  Spin=1 kpt=   42 ( -0.041667  0.291667  0.458333) kpt-group=  1  +
  + ----------------------------------------------------------------- +
  +                                                                   +
  +           1       -2.832594                                       +
  +           2        0.064648                                       +
  +           3        2.732243                                       +
  +           4        3.708650                                       +
  +           5        7.603954                                       +
  +           6        9.210933                                       +
  +           7       13.120064                                       +
  +           8       14.140554                                       +
  +           9       17.134201                                       +
  +          10       18.278408                                       +
  +          11       18.519193                                       +
  +          12       19.564052                                       +
  +          13       20.891886                                       +
  +          14       22.307734                                       +
  + ----------------------------------------------------------------- +
  +  Spin=1 kpt=   43 ( -0.041667  0.458333 -0.041667) kpt-group=  1  +
  + ----------------------------------------------------------------- +
  +                                                                   +
  +           1       -3.300097                                       +
  +           2       -0.696930                                       +
  +           3        4.955589                                       +
  +           4        5.075446                                       +
  +           5        8.178185                                       +
  +           6        9.686338                                       +
  +           7        9.836828                                       +
  +           8       14.061775                                       +
  +           9       16.634571                                       +
  +          10       17.510241                                       +
  +          11       17.885572                                       +
  +          12       18.044654                                       +
  +          13       18.630347                                       +
  +          14       19.734338                                       +
  + ----------------------------------------------------------------- +
  +  Spin=1 kpt=   44 (  0.125000 -0.458333 -0.208333) kpt-group=  1  +
  + ----------------------------------------------------------------- +
  +                                                                   +
  +           1       -2.597359                                       +
  +           2       -0.236311                                       +
  +           3        2.383026                                       +
  +           4        3.544708                                       +
  +           5        8.876146                                       +
  +           6       10.740293                                       +
  +           7       11.235031                                       +
  +           8       14.111670                                       +
  +           9       14.853145                                       +
[...]
  +          14       22.305453                                       +
  + ----------------------------------------------------------------- +
  +  Spin=1 kpt=   79 (  0.291667 -0.041667  0.291667) kpt-group=  2  +
  + ----------------------------------------------------------------- +
  +                                                                   +
  +           1       -3.994267                                       +
  +           2        1.697887                                       +
  +           3        3.914619                                       +
  +           4        3.994064                                       +
  +           5        7.207477                                       +
  +           6        8.659407                                       +
  +           7       13.286490                                       +
  +           8       13.329841                                       +
  +           9       16.051272                                       +
  +          10       16.533775                                       +
  +          11       18.870190                                       +
  +          12       20.384189                                       +
  +          13       20.485855                                       +
  +          14       21.539754                                       +
  + ----------------------------------------------------------------- +
  +  Spin=1 kpt=   80 (  0.291667  0.041667  0.291667) kpt-group=  2  +
  + ----------------------------------------------------------------- +
  +                                                                   +
  +           1       -4.413442                                       +
  +           2        2.426023                                       +
  +           3        4.206084                                       +
  +           4        4.262073                                       +
  +           5        7.406385                                       +
  +           6        9.240679                                       +
  +           7       12.465098                                       +
  +           8       12.533937                                       +
  +           9       15.153529                                       +
  +          10       15.920748                                       +
  +          11       18.092339                                       +
  +          12       19.704831                                       +
  +          13       20.027559                                       +
  +          14       21.011278                                       +
  + ----------------------------------------------------------------- +
  +  Spin=1 kpt=   81 (  0.375000 -0.291667 -0.375000) kpt-group=  2  +
  + ----------------------------------------------------------------- +
  +                                                                   +
  +           1       -2.608066                                       +
  +           2       -0.200761                                       +
  +           3        1.970734                                       +
  +           4        4.023141                                       +
  +           5        8.698695                                       +
  +           6       11.383641                                       +
  +           7       12.473063                                       +
  +           8       13.410619                                       +
  +           9       13.878993                                       +
  +          10       15.357990                                       +
  +          11       20.259140                                       +
  +          12       21.190698                                       +
  +          13       21.806254                                       +
  +          14       23.256188                                       +
  + ----------------------------------------------------------------- +
  +  Spin=1 kpt=   82 (  0.375000 -0.125000 -0.291667) kpt-group=  2  +
  + ----------------------------------------------------------------- +
  +                                                                   +
  +           1       -2.582044                                       +
  +           2       -0.470756                                       +
  +           3        2.480735                                       +
  +           4        3.828779                                       +
  +           5        9.233702                                       +
  +           6       10.124498                                       +
  +           7       12.737884                                       +
  +           8       13.241270                                       +
  +           9       13.840580                                       +
  +          10       17.668017                                       +
  +          11       18.496143                                       +
  +          12       19.409845                                       +
  +          13       22.506528                                       +
  +          14       23.740995                                       +
  + ----------------------------------------------------------------- +
  +  Spin=1 kpt=   83 (  0.375000 -0.041667 -0.041667) kpt-group=  2  +
  + ----------------------------------------------------------------- +
  +                                                                   +
  +           1       -3.741896                                       +
  +           2       -0.024873                                       +
  +           3        5.077282                                       +
  +           4        5.090766                                       +
  +           5        8.252345                                       +
  +           6        9.691912                                       +
  +           7        9.976940                                       +
  +           8       14.052209                                       +
  +           9       15.206294                                       +
  +          10       16.279393                                       +
  +          11       16.814074                                       +
  +          12       19.595433                                       +
  +          13       19.917884                                       +
  +          14       20.994460                                       +
  + ----------------------------------------------------------------- +
  +  Spin=1 kpt=   84 (  0.375000  0.041667 -0.041667) kpt-group=  2  +
  + ----------------------------------------------------------------- +
  +                                                                   +
  +           1       -3.916205                                       +
  +           2        0.362533                                       +
  +           3        4.702816                                       +
  +           4        5.186679                                       +
  +           5        8.554459                                       +
  +           6        9.690132                                       +
  +           7       10.168686                                       +
  +           8       13.692816                                       +
  +           9       14.869497                                       +
  +          10       15.726096                                       +
  +          11       16.974409                                       +
  +          12       19.493034                                       +
  +          13       20.618740                                       +
  +          14       21.762630                                       +
  + ----------------------------------------------------------------- +
  +  Spin=1 kpt=   85 (  0.375000  0.125000 -0.458333) kpt-group=  2  +
  + ----------------------------------------------------------------- +
  +                                                                   +
  +           1       -2.744164                                       +
  +           2        0.026318                                       +
  +           3        2.637628                                       +
  +           4        3.351839                                       +
  +           5        8.538643                                       +
  +           6        9.359309                                       +
  +           7       12.054255                                       +
  +           8       14.890289                                       +
  +           9       15.959414                                       +
  +          10       17.340520                                       +
  +          11       19.639099                                       +
  +          12       20.563176                                       +
  +          13       21.291432                                       +
  +          14       21.441698                                       +
  + ----------------------------------------------------------------- +
  +  Spin=1 kpt=   86 (  0.375000  0.208333 -0.458333) kpt-group=  2  +
  + ----------------------------------------------------------------- +
  +                                                                   +
  +           1       -3.052653                                       +
  +           2        0.317469                                       +
  +           3        2.458618                                       +
  +           4        3.792359                                       +
  +           5        9.495842                                       +
  +           6       10.257354                                       +
  +           7       10.694771                                       +
  +           8       13.921000                                       +
  +           9       15.606100                                       +
  +          10       16.084552                                       +
  +          11       19.848465                                       +
  +          12       20.557655                                       +
  +          13       21.054910                                       +
  +          14       21.637946                                       +
  + ----------------------------------------------------------------- +
  +  Spin=1 kpt=   87 (  0.458333 -0.291667 -0.458333) kpt-group=  2  +
  + ----------------------------------------------------------------- +
  +                                                                   +
  +           1       -3.006614                                       +
  +           2       -0.150896                                       +
  +           3        2.916381                                       +
  +           4        4.128279                                       +
  +           5        8.663814                                       +
  +           6       10.506035                                       +
  +           7       11.970756                                       +
  +           8       12.453228                                       +
  +           9       15.665439                                       +
  +          10       17.383245                                       +
  +          11       18.183404                                       +
  +          12       19.394168                                       +
  +          13       20.478866                                       +
  +          14       23.440671                                       +
  + ----------------------------------------------------------------- +
  +  Spin=1 kpt=   88 (  0.458333 -0.208333  0.375000) kpt-group=  2  +
  + ----------------------------------------------------------------- +
  +                                                                   +
  +           1       -1.775211                                       +
  +           2       -0.994227                                       +
  +           3        2.178769                                       +
  +           4        3.375281                                       +
  +           5        7.962620                                       +
  +           6        9.771779                                       +
  +           7       13.472549                                       +
  +           8       14.293293                                       +
  +           9       15.856198                                       +
  +          10       17.025495                                       +
  +          11       19.885385                                       +
  +          12       21.141386                                       +
  +          13       22.413950                                       +
  +          14       22.823398                                       +
  + ----------------------------------------------------------------- +
  +  Spin=1 kpt=   89 (  0.458333  0.041667  0.291667) kpt-group=  2  +
  + ----------------------------------------------------------------- +
  +                                                                   +
  +           1       -3.332234                                       +
  +           2        0.612321                                       +
  +           3        3.048904                                       +
  +           4        3.894348                                       +
  +           5        7.775821                                       +
  +           6        9.483321                                       +
  +           7       12.415031                                       +
  +           8       13.361448                                       +
  +           9       17.396586                                       +
  +          10       17.672617                                       +
  +          11       18.604392                                       +
  +          12       19.105020                                       +
  +          13       20.452707                                       +
  +          14       21.965055                                       +
  + ----------------------------------------------------------------- +
  +  Spin=1 kpt=   90 (  0.458333  0.291667  0.208333) kpt-group=  2  +
  + ----------------------------------------------------------------- +
  +                                                                   +
  +           1       -3.864661                                       +
  +           2        1.177141                                       +
  +           3        2.893625                                       +
  +           4        4.848150                                       +
  +           5        9.590413                                       +
  +           6        9.856884                                       +
  +           7       11.307895                                       +
  +           8       12.079854                                       +
  +           9       14.141807                                       +
  +          10       16.869627                                       +
  +          11       18.697030                                       +
  +          12       19.130518                                       +
  +          13       20.282591                                       +
  +          14       22.508929                                       +
  + ----------------------------------------------------------------- +
  +  Spin=1 kpt=   91 (  0.458333  0.458333  0.458333) kpt-group=  2  +
  + ----------------------------------------------------------------- +
  +                                                                   +
  +           1       -3.414430                                       +
  +           2       -0.581278                                       +
  +           3        5.135756                                       +
  +           4        5.138525                                       +
  +           5        8.025319                                       +
  +           6        9.726543                                       +
  +           7        9.730954                                       +
  +           8       13.982744                                       +
  +           9       16.850520                                       +
  +          10       16.851276                                       +
  +          11       17.434804                                       +
  +          12       18.716696                                       +
  +          13       18.718225                                       +
  +          14       19.759644                                       +
  =====================================================================

Writing model to Si2.orbitals
  + Calculation re-parallelised over 16 processes.                    +
  + Data distributed by G-vector(8-way), k-point(2-way)               +
 
 ******************* Unconstrained Forces *******************
 *                                                          *
 *               Cartesian components (eV/A)                *
 * -------------------------------------------------------- *
 *                         x            y            z      *
 *                                                          *
 * Si              1     -0.00000      0.00000     -0.00000 *
 * Si              2      0.00000      0.00000      0.00000 *
 *                                                          *
 ************************************************************
 
 ************** Constrained Symmetrised Forces **************
 *                                                          *
 *               Cartesian components (eV/A)                *
 * -------------------------------------------------------- *
 *                         x            y            z      *
 *                                                          *
 * Si              1     -0.00000      0.00000     -0.00000 *
 * Si              2      0.00000      0.00000      0.00000 *
 *                                                          *
 ************************************************************
 
 Pseudo atomic calculation performed for Si 3s2 3p2
 
 Converged in 16 iterations to a total energy of -102.0354 eV
 
Charge spilling parameter for spin component 1 = 0.78%
 
     Atomic Populations (Mulliken)
     -----------------------------
Species          Ion     s      p      d      f     Total  Charge (e)
=====================================================================
  Si              1     1.35   2.65   0.00   0.00   4.00     0.00
  Si              2     1.35   2.65   0.00   0.00   4.00     0.00
=====================================================================
 
                 Bond                   Population      Length (A)
======================================================================
              Si 1 -- Si 2                   2.99        2.33434
======================================================================
 

Writing analysis data to Si2.castep_bin

Writing model to Si2.check
 
 A BibTeX formatted list of references used in this run has been written to 
 Si2.bib
 
Initialisation time =      0.59 s
Calculation time    =     42.85 s
Finalisation time   =      0.67 s
Total time          =     44.11 s
Peak Memory Use     = 272732 kB
  
Overall parallel efficiency rating: Poor (39%)                                  
  
Data was distributed by:-
G-vector (8-way); efficiency rating: Poor (41%)                                 
k-point (2-way); efficiency rating: Excellent (91%)                             
  
Parallel notes:
1) Calculation only took 43.5 s, so efficiency estimates may be inaccurate.     
