nqpoint: 9      
natom:   4      
reciprocal_lattice:
- [   0.28093460,   0.16219766,   0.05359282 ] # a*
- [  -0.28093460,   0.16219766,   0.05359282 ] # b*
- [  -0.00000000,  -0.32439533,   0.05359282 ] # c*
phonon:
- q-position: [    0.0000000,    0.0000000,    0.0000000 ]
  band:
  - # 1
    frequency:   -0.0024002137
    eigenvector:
    - # atom 1
      - [  0.06498004822200,  0.00000000000000 ]
      - [ -0.23350598400652,  0.00000000000000 ]
      - [ -0.00000000022292,  0.00000000000000 ]
    - # atom 2
      - [  0.06498004822652,  0.00000000000000 ]
      - [ -0.23350598402409,  0.00000000000000 ]
      - [ -0.00000000022292,  0.00000000000000 ]
    - # atom 3
      - [  0.10274980231670,  0.00000000000000 ]
      - [ -0.36923170039006,  0.00000000000000 ]
      - [ -0.00000000035287,  0.00000000000000 ]
    - # atom 4
      - [  0.22993811056319,  0.00000000000000 ]
      - [ -0.82628323980655,  0.00000000000000 ]
      - [ -0.00000000078932,  0.00000000000000 ]
  - # 2
    frequency:   -0.0024002136
    eigenvector:
    - # atom 1
      - [  0.23350598400859,  0.00000000000000 ]
      - [  0.06498004822253,  0.00000000000000 ]
      - [ -0.00000000002087,  0.00000000000000 ]
    - # atom 2
      - [  0.23350598399102,  0.00000000000000 ]
      - [  0.06498004821800,  0.00000000000000 ]
      - [ -0.00000000002087,  0.00000000000000 ]
    - # atom 3
      - [  0.36923170039331,  0.00000000000000 ]
      - [  0.10274980231754,  0.00000000000000 ]
      - [ -0.00000000003304,  0.00000000000000 ]
    - # atom 4
      - [  0.82628323981386,  0.00000000000000 ]
      - [  0.22993811056507,  0.00000000000000 ]
      - [ -0.00000000007391,  0.00000000000000 ]
  - # 3
    frequency:   -0.0003864287
    eigenvector:
    - # atom 1
      - [  0.00000000007992,  0.00000000000000 ]
      - [ -0.00000000020929,  0.00000000000000 ]
      - [  0.24223080478684,  0.00000000000000 ]
    - # atom 2
      - [  0.00000000007992,  0.00000000000000 ]
      - [ -0.00000000020929,  0.00000000000000 ]
      - [  0.24223080478684,  0.00000000000000 ]
    - # atom 3
      - [  0.00000000012638,  0.00000000000000 ]
      - [ -0.00000000033094,  0.00000000000000 ]
      - [  0.38343327056864,  0.00000000000000 ]
    - # atom 4
      - [  0.00000000028281,  0.00000000000000 ]
      - [ -0.00000000074060,  0.00000000000000 ]
      - [  0.85768723987575,  0.00000000000000 ]
  - # 4
    frequency:    3.4441551704
    eigenvector:
    - # atom 1
      - [  0.07994005040654, -0.00000000000000 ]
      - [ -0.29837014374621,  0.00000000000000 ]
      - [ -0.00000000000000,  0.00000000000000 ]
    - # atom 2
      - [  0.07994005041584,  0.00000000000000 ]
      - [ -0.29837014378090,  0.00000000000000 ]
      - [  0.00000000000000,  0.00000000000000 ]
    - # atom 3
      - [  0.19234813933098,  0.00000000000000 ]
      - [ -0.71792476599198,  0.00000000000000 ]
      - [ -0.00000000000000,  0.00000000000000 ]
    - # atom 4
      - [ -0.13113419902405,  0.00000000000000 ]
      - [  0.48944840056857,  0.00000000000000 ]
      - [ -0.00000000000000,  0.00000000000000 ]
  - # 5
    frequency:    3.4441551704
    eigenvector:
    - # atom 1
      - [  0.29837014376304,  0.00000000000000 ]
      - [  0.07994005041105,  0.00000000000000 ]
      - [  0.00000000000000,  0.00000000000000 ]
    - # atom 2
      - [  0.29837014372835,  0.00000000000000 ]
      - [  0.07994005040175,  0.00000000000000 ]
      - [ -0.00000000000000,  0.00000000000000 ]
    - # atom 3
      - [  0.71792476601525,  0.00000000000000 ]
      - [  0.19234813933722,  0.00000000000000 ]
      - [ -0.00000000000000,  0.00000000000000 ]
    - # atom 4
      - [ -0.48944840055622,  0.00000000000000 ]
      - [ -0.13113419902075,  0.00000000000000 ]
      - [ -0.00000000000000,  0.00000000000000 ]
  - # 6
    frequency:    7.3875551952
    eigenvector:
    - # atom 1
      - [ -0.18301340091061,  0.00000000000000 ]
      - [  0.68301251451278,  0.00000000000000 ]
      - [  0.00000000000000,  0.00000000000000 ]
    - # atom 2
      - [  0.18301340094943,  0.00000000000000 ]
      - [ -0.68301251465767,  0.00000000000000 ]
      - [ -0.00000000000000,  0.00000000000000 ]
    - # atom 3
      - [ -0.00000000002690,  0.00000000000000 ]
      - [  0.00000000010040,  0.00000000000000 ]
      - [ -0.00000000000000,  0.00000000000000 ]
    - # atom 4
      - [ -0.00000000000282,  0.00000000000000 ]
      - [  0.00000000001053,  0.00000000000000 ]
      - [  0.00000000000000,  0.00000000000000 ]
  - # 7
    frequency:    7.3875551958
    eigenvector:
    - # atom 1
      - [ -0.68301251465767,  0.00000000000000 ]
      - [ -0.18301340094943,  0.00000000000000 ]
      - [  0.00000000000000,  0.00000000000000 ]
    - # atom 2
      - [  0.68301251451278,  0.00000000000000 ]
      - [  0.18301340091061,  0.00000000000000 ]
      - [ -0.00000000000000,  0.00000000000000 ]
    - # atom 3
      - [  0.00000000010040,  0.00000000000000 ]
      - [  0.00000000002690,  0.00000000000000 ]
      - [  0.00000000000000,  0.00000000000000 ]
    - # atom 4
      - [  0.00000000001053,  0.00000000000000 ]
      - [  0.00000000000282,  0.00000000000000 ]
      - [ -0.00000000000000,  0.00000000000000 ]
  - # 8
    frequency:    7.6325511395
    eigenvector:
    - # atom 1
      - [  0.00000000000000,  0.00000000000000 ]
      - [ -0.00000000000000,  0.00000000000000 ]
      - [  0.07369964609005,  0.00000000000000 ]
    - # atom 2
      - [ -0.00000000000000,  0.00000000000000 ]
      - [  0.00000000000000,  0.00000000000000 ]
      - [  0.07369964609005,  0.00000000000000 ]
    - # atom 3
      - [ -0.00000000000000,  0.00000000000000 ]
      - [  0.00000000000000,  0.00000000000000 ]
      - [ -0.92280010818581,  0.00000000000000 ]
    - # atom 4
      - [ -0.00000000000000,  0.00000000000000 ]
      - [  0.00000000000000,  0.00000000000000 ]
      - [  0.37091331152259,  0.00000000000000 ]
  - # 9
    frequency:    9.1690372027
    eigenvector:
    - # atom 1
      - [ -0.15220797298732,  0.00000000000000 ]
      - [  0.56804060373642,  0.00000000000000 ]
      - [  0.00000000000000,  0.00000000000000 ]
    - # atom 2
      - [ -0.15220797293383,  0.00000000000000 ]
      - [  0.56804060353676,  0.00000000000000 ]
      - [ -0.00000000000000,  0.00000000000000 ]
    - # atom 3
      - [  0.14192722918010,  0.00000000000000 ]
      - [ -0.52967283755113,  0.00000000000000 ]
      - [  0.00000000000000,  0.00000000000000 ]
    - # atom 4
      - [  0.02260594423385,  0.00000000000000 ]
      - [ -0.08436545049910,  0.00000000000000 ]
      - [ -0.00000000000000,  0.00000000000000 ]
  - # 10
    frequency:    9.1690372031
    eigenvector:
    - # atom 1
      - [  0.56804060355252,  0.00000000000000 ]
      - [  0.15220797293805,  0.00000000000000 ]
      - [  0.00000000000000,  0.00000000000000 ]
    - # atom 2
      - [  0.56804060375218,  0.00000000000000 ]
      - [  0.15220797299155,  0.00000000000000 ]
      - [ -0.00000000000000,  0.00000000000000 ]
    - # atom 3
      - [ -0.52967283751733,  0.00000000000000 ]
      - [ -0.14192722917105,  0.00000000000000 ]
      - [  0.00000000000000,  0.00000000000000 ]
    - # atom 4
      - [ -0.08436545049909,  0.00000000000000 ]
      - [ -0.02260594423385,  0.00000000000000 ]
      - [ -0.00000000000000,  0.00000000000000 ]
  - # 11
    frequency:   18.3803983342
    eigenvector:
    - # atom 1
      - [  0.00000000000000, -0.00000000000000 ]
      - [  0.00000000000000,  0.00000000000000 ]
      - [  0.66022162898418,  0.00000000000000 ]
    - # atom 2
      - [ -0.00000000000000,  0.00000000000000 ]
      - [ -0.00000000000000,  0.00000000000000 ]
      - [  0.66022162898418,  0.00000000000000 ]
    - # atom 3
      - [  0.00000000000000,  0.00000000000000 ]
      - [ -0.00000000000000,  0.00000000000000 ]
      - [ -0.03766812118076,  0.00000000000000 ]
    - # atom 4
      - [ -0.00000000000000,  0.00000000000000 ]
      - [ -0.00000000000000,  0.00000000000000 ]
      - [ -0.35608413877856,  0.00000000000000 ]
  - # 12
    frequency:   19.7352952650
    eigenvector:
    - # atom 1
      - [ -0.00000000000000,  0.00000000000000 ]
      - [  0.00000000000000,  0.00000000000000 ]
      - [ -0.70710678118655,  0.00000000000000 ]
    - # atom 2
      - [  0.00000000000000,  0.00000000000000 ]
      - [ -0.00000000000000,  0.00000000000000 ]
      - [  0.70710678118655,  0.00000000000000 ]
    - # atom 3
      - [  0.00000000000000,  0.00000000000000 ]
      - [ -0.00000000000000,  0.00000000000000 ]
      - [  0.00000000000000,  0.00000000000000 ]
    - # atom 4
      - [  0.00000000000000,  0.00000000000000 ]
      - [ -0.00000000000000,  0.00000000000000 ]
      - [  0.00000000000000,  0.00000000000000 ]

- q-position: [    0.0000000,    0.0000000,    0.5000000 ]
  band:
  - # 1
    frequency:    1.6885557390
    eigenvector:
    - # atom 1
      - [ -0.07786851946457,  0.00000000000000 ]
      - [ -0.00000000000117, -0.00000000000000 ]
      - [ -0.00000000000042, -0.00000000000000 ]
    - # atom 2
      - [ -0.06123091876319,  0.04810697361171 ]
      - [  0.00000000000308, -0.00000000000242 ]
      - [ -0.00000000000073,  0.00000000000057 ]
    - # atom 3
      - [ -0.00000000000017, -0.00000000000048 ]
      - [  0.00000000000010,  0.00000000000030 ]
      - [  0.00000000000068,  0.00000000000197 ]
    - # atom 4
      - [ -0.93932803966602,  0.32486277295333 ]
      - [ -0.00000000000062,  0.00000000000021 ]
      - [ -0.00000000000236,  0.00000000000082 ]
  - # 2
    frequency:    1.9332363883
    eigenvector:
    - # atom 1
      - [ -0.00000000000085,  0.00000000000000 ]
      - [ -0.05026965583871,  0.00000171328333 ]
      - [ -0.04470994485336,  0.00000152379804 ]
    - # atom 2
      - [  0.00000000000238, -0.00000000000187 ]
      - [ -0.03952784531905,  0.03105781296345 ]
      - [ -0.03515615443705,  0.02762288862970 ]
    - # atom 3
      - [ -0.00000000000081, -0.00000000000233 ]
      - [  0.00000000000021,  0.00000000000060 ]
      - [ -0.00000000000072, -0.00000000000207 ]
    - # atom 4
      - [  0.00000000000074, -0.00000000000026 ]
      - [ -0.92938108347365,  0.32145812279230 ]
      - [ -0.14599169641177,  0.05049620387838 ]
  - # 3
    frequency:    2.7023524529
    eigenvector:
    - # atom 1
      - [  0.00000000000927,  0.00000000000000 ]
      - [  0.02263726732444, -0.00000000883472 ]
      - [  0.23605113918849, -0.00000009212443 ]
    - # atom 2
      - [ -0.00000000000771,  0.00000000000605 ]
      - [  0.01780052146605, -0.01398525322967 ]
      - [  0.18561575070690, -0.14583186689233 ]
    - # atom 3
      - [  0.00000000000505,  0.00000000001460 ]
      - [ -0.00000000000107, -0.00000000000309 ]
      - [  0.00000000000122,  0.00000000000354 ]
    - # atom 4
      - [ -0.00000000000230,  0.00000000000079 ]
      - [ -0.16005387517510,  0.05535405013860 ]
      - [  0.87584291522651, -0.30290708419241 ]
  - # 4
    frequency:    4.2209664124
    eigenvector:
    - # atom 1
      - [  0.43989152830686,  0.00000000000000 ]
      - [ -0.00000000001414,  0.00000000000000 ]
      - [ -0.00000000000316, -0.00000000000000 ]
    - # atom 2
      - [ -0.34590310203583,  0.27176386926684 ]
      - [  0.00000000002572, -0.00000000002021 ]
      - [ -0.00000000000337,  0.00000000000265 ]
    - # atom 3
      - [  0.25590360319586,  0.73993528943978 ]
      - [  0.00000000000106,  0.00000000000307 ]
      - [  0.00000000001249,  0.00000000003611 ]
    - # atom 4
      - [ -0.00000000000621,  0.00000000000215 ]
      - [ -0.00000000000098,  0.00000000000034 ]
      - [ -0.00000000001970,  0.00000000000681 ]
  - # 5
    frequency:    5.1174464662
    eigenvector:
    - # atom 1
      - [  0.00000000002756,  0.00000000000000 ]
      - [  0.21005509719478, -0.00000007274880 ]
      - [ -0.02861438232191,  0.00000000991008 ]
    - # atom 2
      - [  0.00000000000118, -0.00000000000093 ]
      - [ -0.16517410608861,  0.12977156293402 ]
      - [  0.02250054906568, -0.01767790053945 ]
    - # atom 3
      - [  0.00000000001459,  0.00000000004219 ]
      - [ -0.01219664284815, -0.03526607763616 ]
      - [ -0.31157725898751, -0.90091248402705 ]
    - # atom 4
      - [ -0.00000000000508,  0.00000000000176 ]
      - [  0.00000000000331, -0.00000000000115 ]
      - [  0.00000000000653, -0.00000000000226 ]
  - # 6
    frequency:    8.3841595677
    eigenvector:
    - # atom 1
      - [ -0.55362030650452,  0.00000000000000 ]
      - [  0.00000000027405,  0.00000000000000 ]
      - [ -0.00000000002044,  0.00000000000000 ]
    - # atom 2
      - [  0.43533227806717, -0.34202521922462 ]
      - [ -0.00000000025470,  0.00000000020011 ]
      - [  0.00000000001450, -0.00000000001139 ]
    - # atom 3
      - [  0.20333399237681,  0.58793230975780 ]
      - [  0.00000000006997,  0.00000000020231 ]
      - [  0.00000000004528,  0.00000000013094 ]
    - # atom 4
      - [  0.00000000006048, -0.00000000002092 ]
      - [  0.00000000000259, -0.00000000000090 ]
      - [  0.00000000000308, -0.00000000000106 ]
  - # 7
    frequency:    8.5503842155
    eigenvector:
    - # atom 1
      - [ -0.00000000075433,  0.00000000000000 ]
      - [ -0.57894657560490, -0.00000017612488 ]
      - [  0.04430961172935,  0.00000001347970 ]
    - # atom 2
      - [ -0.00000000015352,  0.00000000012061 ]
      - [  0.45524737681031, -0.35767158603536 ]
      - [ -0.03484230730388,  0.02737435501952 ]
    - # atom 3
      - [  0.00000000009582,  0.00000000027706 ]
      - [ -0.16962041545616, -0.49045129980076 ]
      - [ -0.07762368493138, -0.22444607901433 ]
    - # atom 4
      - [  0.00000000007250, -0.00000000002507 ]
      - [ -0.00000000000734,  0.00000000000254 ]
      - [ -0.00000000001254,  0.00000000000434 ]
  - # 8
    frequency:    8.7747105749
    eigenvector:
    - # atom 1
      - [  0.70280615622381,  0.00000000000000 ]
      - [ -0.00000000040507,  0.00000000000000 ]
      - [  0.00000000003260, -0.00000000000000 ]
    - # atom 2
      - [  0.55264267250136, -0.43419185927213 ]
      - [  0.00000000024360, -0.00000000019139 ]
      - [ -0.00000000002855,  0.00000000002243 ]
    - # atom 3
      - [  0.00000000010439,  0.00000000030185 ]
      - [ -0.00000000014508, -0.00000000041948 ]
      - [ -0.00000000003928, -0.00000000011357 ]
    - # atom 4
      - [ -0.10407433551399,  0.03599368463479 ]
      - [  0.00000000000549, -0.00000000000190 ]
      - [  0.00000000000420, -0.00000000000145 ]
  - # 9
    frequency:    9.7897203077
    eigenvector:
    - # atom 1
      - [ -0.00000000004531,  0.00000000000000 ]
      - [  0.34662437546171, -0.00000007201319 ]
      - [  0.04376364117166, -0.00000000909215 ]
    - # atom 2
      - [ -0.00000000008660,  0.00000000006804 ]
      - [ -0.27256361962693,  0.21414371577827 ]
      - [ -0.03441297637329,  0.02703707355241 ]
    - # atom 3
      - [ -0.00000000000692, -0.00000000002000 ]
      - [ -0.27777277407402, -0.80316860403884 ]
      - [  0.05994399745950,  0.17332561450829 ]
    - # atom 4
      - [  0.00000000000996, -0.00000000000344 ]
      - [  0.00000000000642, -0.00000000000222 ]
      - [  0.00000000000547, -0.00000000000189 ]
  - # 10
    frequency:   11.6029350062
    eigenvector:
    - # atom 1
      - [  0.00000000002186,  0.00000000000000 ]
      - [  0.70141051114805, -0.00000043534356 ]
      - [  0.05587635989294, -0.00000003468071 ]
    - # atom 2
      - [  0.00000000005794, -0.00000000004552 ]
      - [  0.55154495517164, -0.43332997511098 ]
      - [  0.04393764269119, -0.03452030053993 ]
    - # atom 3
      - [  0.00000000000358,  0.00000000001034 ]
      - [ -0.00000000000979, -0.00000000002832 ]
      - [  0.00000000000637,  0.00000000001843 ]
    - # atom 4
      - [ -0.00000000000510,  0.00000000000176 ]
      - [ -0.06149441353672,  0.02126763494676 ]
      - [ -0.07052304467513,  0.02439015649103 ]
  - # 11
    frequency:   18.7048716997
    eigenvector:
    - # atom 1
      - [  0.00000000000141, -0.00000000000000 ]
      - [  0.02343631694392, -0.00000002189849 ]
      - [  0.70377739316933, -0.00000065759749 ]
    - # atom 2
      - [  0.00000000000037, -0.00000000000029 ]
      - [ -0.01842883588336,  0.01447891432378 ]
      - [ -0.55340598554849,  0.43479240369481 ]
    - # atom 3
      - [  0.00000000000040,  0.00000000000116 ]
      - [  0.02745643070140,  0.07938895854138 ]
      - [ -0.01150859845556, -0.03327656298790 ]
    - # atom 4
      - [  0.00000000000004, -0.00000000000001 ]
      - [ -0.00000000000005,  0.00000000000002 ]
      - [  0.00000000000264, -0.00000000000091 ]
  - # 12
    frequency:   19.1166981556
    eigenvector:
    - # atom 1
      - [ -0.00000000000168,  0.00000000000000 ]
      - [ -0.07059611037122,  0.00000004986562 ]
      - [  0.66269051066774, -0.00000046809200 ]
    - # atom 2
      - [ -0.00000000000179,  0.00000000000140 ]
      - [ -0.05551232167013,  0.04361413695261 ]
      - [  0.52109795571879, -0.40940888297733 ]
    - # atom 3
      - [ -0.00000000000041, -0.00000000000118 ]
      - [  0.00000000000103,  0.00000000000299 ]
      - [ -0.00000000000012, -0.00000000000034 ]
    - # atom 4
      - [  0.00000000000005, -0.00000000000002 ]
      - [ -0.00050714074458,  0.00017539296001 ]
      - [ -0.31587970109690,  0.10924595661756 ]

- q-position: [   -0.2500000,    0.5000000,    0.5000000 ]
  band:
  - # 1
    frequency:    1.5478366518
    eigenvector:
    - # atom 1
      - [ -0.07641191020513,  0.00000000000000 ]
      - [  0.13234931077755, -0.00000000000524 ]
      - [  0.00000000000124,  0.00000000000096 ]
    - # atom 2
      - [  0.04937120486515,  0.05832035779570 ]
      - [ -0.08551343526676, -0.10101382283635 ]
      - [  0.00000000000089,  0.00000000000035 ]
    - # atom 3
      - [ -0.04244362741662,  0.09154079083381 ]
      - [  0.07351451914871, -0.15855330068208 ]
      - [  0.00000000000006, -0.00000000000311 ]
    - # atom 4
      - [ -0.20091640612108,  0.43332881257684 ]
      - [  0.34799742347583, -0.75054751982525 ]
      - [  0.00000000000335,  0.00000000000218 ]
  - # 2
    frequency:    1.6900703938
    eigenvector:
    - # atom 1
      - [ -0.07225528585326,  0.00000000000000 ]
      - [ -0.04171660873368,  0.00000000000185 ]
      - [ -0.03488560964923, -0.00571699479043 ]
    - # atom 2
      - [ -0.01919458579811,  0.06965912794907 ]
      - [ -0.01108199927780,  0.04021771627498 ]
      - [ -0.00375576526203,  0.03515087509709 ]
    - # atom 3
      - [ -0.01379923786382,  0.01051114638350 ]
      - [ -0.00796699369309,  0.00606861319388 ]
      - [ -0.07351423903384,  0.05599721358679 ]
    - # atom 4
      - [ -0.67484397776779,  0.51404165288341 ]
      - [ -0.38962135219104,  0.29678208665899 ]
      - [ -0.09775160588765,  0.07445928271546 ]
  - # 3
    frequency:    2.7519634271
    eigenvector:
    - # atom 1
      - [  0.07882192304378,  0.00000000000000 ]
      - [  0.04550785847923, -0.00000000000674 ]
      - [  0.02885364356170, -0.21844687873730 ]
    - # atom 2
      - [ -0.05356739500056,  0.05782239789032 ]
      - [ -0.03092714991857,  0.03338377699681 ]
      - [ -0.17985778679153, -0.12729001559091 ]
    - # atom 3
      - [ -0.07134095969267, -0.16334121461229 ]
      - [ -0.04118872229623, -0.09430509421419 ]
      - [ -0.04587746434335, -0.10504037329391 ]
    - # atom 4
      - [  0.05090895843824,  0.11656041703602 ]
      - [  0.02939230086993,  0.06729618813974 ]
      - [ -0.36006028946507, -0.82438881479053 ]
  - # 4
    frequency:    3.4375556575
    eigenvector:
    - # atom 1
      - [ -0.21138976557653,  0.00000000000000 ]
      - [  0.36613781416837,  0.00000000000895 ]
      - [ -0.00000000000338, -0.00000000000506 ]
    - # atom 2
      - [  0.21056401421418, -0.01866625091788 ]
      - [ -0.36470757092176,  0.03233089496151 ]
      - [ -0.00000000000477,  0.00000000000339 ]
    - # atom 3
      - [  0.01660620512574,  0.37538609400872 ]
      - [ -0.02876279096861, -0.65018778728330 ]
      - [ -0.00000000000825, -0.00000000000245 ]
    - # atom 4
      - [ -0.00616163883655, -0.13928489715565 ]
      - [  0.01067227154313,  0.24124851861589 ]
      - [ -0.00000000002547, -0.00000000000226 ]
  - # 5
    frequency:    5.5520937925
    eigenvector:
    - # atom 1
      - [  0.35099112174526,  0.00000000000000 ]
      - [  0.20264481864248,  0.00000000002317 ]
      - [ -0.01329174833635,  0.03810623927971 ]
    - # atom 2
      - [ -0.11531917873101,  0.33150604057343 ]
      - [ -0.06657955889075,  0.19139510179003 ]
      - [  0.04035783470308, -0.00003394331954 ]
    - # atom 3
      - [ -0.38994031291059, -0.54850640038864 ]
      - [ -0.22513214458115, -0.31668031792079 ]
      - [  0.07151936629844,  0.10060214239849 ]
    - # atom 4
      - [ -0.01204237029321, -0.01693930361977 ]
      - [ -0.00695266573541, -0.00977991150835 ]
      - [  0.12763971804584,  0.17954338976124 ]
  - # 6
    frequency:    6.7644732228
    eigenvector:
    - # atom 1
      - [ -0.13463000583244,  0.00000000000000 ]
      - [ -0.07772867009057,  0.00000000000972 ]
      - [ -0.01824439657098, -0.08400824483862 ]
    - # atom 2
      - [  0.02540545334073,  0.13221119922810 ]
      - [  0.01466784532789,  0.07633217149725 ]
      - [  0.08594174878728,  0.00206377544474 ]
    - # atom 3
      - [ -0.03762640607446,  0.04554500071409 ]
      - [ -0.02172361565002,  0.02629541842886 ]
      - [ -0.60314779592332,  0.73008212567453 ]
    - # atom 4
      - [  0.05362133542622, -0.06490611063533 ]
      - [  0.03095829244141, -0.03747356045033 ]
      - [  0.10264673034998, -0.12424905153736 ]
  - # 7
    frequency:    7.9111568428
    eigenvector:
    - # atom 1
      - [  0.32189270299077,  0.00000000000000 ]
      - [ -0.55753451608242, -0.00000000008115 ]
      - [  0.00000000000271, -0.00000000000049 ]
    - # atom 2
      - [  0.12161761784694,  0.29803366799006 ]
      - [ -0.21064789329090, -0.51620945548996 ]
      - [  0.00000000000524, -0.00000000000310 ]
    - # atom 3
      - [  0.17016714542410,  0.11435030058931 ]
      - [ -0.29473814177038, -0.19806053052152 ]
      - [ -0.00000000001792,  0.00000000006115 ]
    - # atom 4
      - [ -0.02253779006773, -0.01514512718406 ]
      - [  0.03903659748531,  0.02623212979098 ]
      - [  0.00000000000681,  0.00000000000323 ]
  - # 8
    frequency:    9.1883957487
    eigenvector:
    - # atom 1
      - [ -0.30961375008545,  0.00000000000000 ]
      - [  0.53626674785696, -0.00000000116945 ]
      - [  0.00000000003096,  0.00000000000242 ]
    - # atom 2
      - [ -0.02950709314528,  0.30820448646428 ]
      - [  0.05110778435195, -0.53382583223759 ]
      - [ -0.00000000000132, -0.00000000001847 ]
    - # atom 3
      - [  0.17605283676807, -0.16000277028101 ]
      - [ -0.30493245822985,  0.27713292734134 ]
      - [ -0.00000000019771,  0.00000000036792 ]
    - # atom 4
      - [  0.03036093696812, -0.02759304596693 ]
      - [ -0.05258668555160,  0.04779255784791 ]
      - [ -0.00000000001078,  0.00000000002156 ]
  - # 9
    frequency:    9.2668007109
    eigenvector:
    - # atom 1
      - [ -0.59338376164655,  0.00000000000000 ]
      - [ -0.34259027348406,  0.00000000059136 ]
      - [ -0.01259630606026, -0.00602559107812 ]
    - # atom 2
      - [ -0.27210575196230,  0.52731655381800 ]
      - [ -0.15710032834805,  0.30444635318014 ]
      - [ -0.00042153749548,  0.01395696876527 ]
    - # atom 3
      - [ -0.01090159492230,  0.00664201167394 ]
      - [ -0.00629403971208,  0.00383476737346 ]
      - [  0.19354618421510, -0.11792182935661 ]
    - # atom 4
      - [  0.06963331668470, -0.04242547158148 ]
      - [  0.04020281396820, -0.02449435739861 ]
      - [  0.01259033240561, -0.00767090883853 ]
  - # 10
    frequency:   10.0244966829
    eigenvector:
    - # atom 1
      - [  0.49044797916362,  0.00000000000000 ]
      - [  0.28316027284417,  0.00000000002095 ]
      - [ -0.02154076797718, -0.07181007608649 ]
    - # atom 2
      - [ -0.22872317468766,  0.43384897170395 ]
      - [ -0.13205338639682,  0.25048282048676 ]
      - [ -0.05347734245441, -0.05254393958620 ]
    - # atom 3
      - [  0.26348897495276,  0.43677335391961 ]
      - [  0.15212543055647,  0.25217121344966 ]
      - [  0.00810604725560,  0.01343701576038 ]
    - # atom 4
      - [ -0.00001848142608, -0.00003063577307 ]
      - [ -0.00001067026778, -0.00001768756725 ]
      - [  0.00621066168638,  0.01029512045100 ]
  - # 11
    frequency:   19.1243835916
    eigenvector:
    - # atom 1
      - [  0.02609180048411, -0.00000000000000 ]
      - [  0.01506410803084, -0.00000000000018 ]
      - [  0.16036482394799, -0.68236642745732 ]
    - # atom 2
      - [  0.02444454042986, -0.00912395178709 ]
      - [  0.01411306199760, -0.00526771602056 ]
      - [  0.38885483600346,  0.58320899704036 ]
    - # atom 3
      - [  0.00307299201273, -0.00055480530968 ]
      - [  0.00177419276563, -0.00032031699551 ]
      - [  0.11862177371441, -0.02141625855023 ]
    - # atom 4
      - [ -0.00001452771054,  0.00000262288057 ]
      - [ -0.00000838757757,  0.00000151432081 ]
      - [  0.03049349514034, -0.00550536848429 ]
  - # 12
    frequency:   20.5771302243
    eigenvector:
    - # atom 1
      - [ -0.06262572716652,  0.00000000000000 ]
      - [ -0.03615698043600, -0.00000000000012 ]
      - [  0.05876101446360, -0.66375477255670 ]
    - # atom 2
      - [  0.05097583467031, -0.03637919712789 ]
      - [  0.02943091186743, -0.02100353925359 ]
      - [ -0.43340426791549, -0.50614621974988 ]
    - # atom 3
      - [ -0.01037055426950, -0.03238419865607 ]
      - [ -0.00598744229889, -0.01869702581076 ]
      - [  0.00357015642120,  0.01114855156468 ]
    - # atom 4
      - [ -0.00001184496901, -0.00003698832124 ]
      - [ -0.00000683869597, -0.00002135521724 ]
      - [  0.09635403618007,  0.30088539432953 ]

- q-position: [   -0.1515150,    0.5757580,    0.5000000 ]
  band:
  - # 1
    frequency:    1.5562942272
    eigenvector:
    - # atom 1
      - [ -0.02984076451456,  0.00000000000000 ]
      - [  0.09331683579966, -0.07201555738900 ]
      - [  0.02736444980213, -0.02724520534234 ]
    - # atom 2
      - [  0.02968533642597,  0.00304171264769 ]
      - [ -0.08549013859069, -0.08115237852148 ]
      - [ -0.02444477755375, -0.02989259393708 ]
    - # atom 3
      - [ -0.00320875117590,  0.06279503221905 ]
      - [  0.00646831184936, -0.12658443603003 ]
      - [  0.00406948010090, -0.07963948526148 ]
    - # atom 4
      - [ -0.00518717443132,  0.10151262972743 ]
      - [  0.04869597313703, -0.95297689505208 ]
      - [  0.00725345650405, -0.14194967973656 ]
  - # 2
    frequency:    1.6129246768
    eigenvector:
    - # atom 1
      - [ -0.09611329383905,  0.00000000000000 ]
      - [  0.00546989308686,  0.01837747736866 ]
      - [ -0.05203841103011,  0.00455016629499 ]
    - # atom 2
      - [  0.01780708130362,  0.09444931436868 ]
      - [ -0.01907273024159, -0.00197036655979 ]
      - [  0.00516985971500,  0.05198050391647 ]
    - # atom 3
      - [ -0.03652908251550,  0.04405968344837 ]
      - [  0.02145725453040, -0.02588074213035 ]
      - [ -0.07767597537807,  0.09368915599255 ]
    - # atom 4
      - [ -0.61027526536740,  0.73608566460658 ]
      - [ -0.04681215478632,  0.05646264726994 ]
      - [ -0.12189969187899,  0.14702974761723 ]
  - # 3
    frequency:    2.6516608774
    eigenvector:
    - # atom 1
      - [  0.04503430113299,  0.00000000000000 ]
      - [  0.01412903799831, -0.01336724115170 ]
      - [  0.07803180291963, -0.20212211408391 ]
    - # atom 2
      - [ -0.03749593348146,  0.02494279902484 ]
      - [ -0.01916756451256, -0.00330413528216 ]
      - [ -0.17691773279489, -0.12506968893317 ]
    - # atom 3
      - [ -0.03391959269185, -0.11223246324627 ]
      - [ -0.02175077273836, -0.07196851534911 ]
      - [ -0.04704316094739, -0.15565546896020 ]
    - # atom 4
      - [  0.06201090043446,  0.20518044676063 ]
      - [  0.05473684506405,  0.18111219269220 ]
      - [ -0.25447416696587, -0.84199907698095 ]
  - # 4
    frequency:    4.2611458040
    eigenvector:
    - # atom 1
      - [ -0.24355586677828,  0.00000000000000 ]
      - [  0.30287264492132, -0.08350528888295 ]
      - [ -0.00449665040339, -0.00507596168613 ]
    - # atom 2
      - [  0.23895882778839, -0.04709712224629 ]
      - [ -0.31330368670992, -0.02336176923585 ]
      - [  0.00343022377969, -0.00584968523056 ]
    - # atom 3
      - [  0.04807269715619,  0.49250955730471 ]
      - [ -0.06082843385428, -0.62319334541551 ]
      - [  0.00089337245652,  0.00915268834940 ]
    - # atom 4
      - [ -0.01054204544052, -0.10800430621918 ]
      - [  0.01815858582629,  0.18603651666790 ]
      - [ -0.00103046831258, -0.01055725090301 ]
  - # 5
    frequency:    6.0999283568
    eigenvector:
    - # atom 1
      - [  0.11339712924890,  0.00000000000000 ]
      - [  0.10558690323005, -0.10336706359369 ]
      - [ -0.04166879414259,  0.03828164475230 ]
    - # atom 2
      - [  0.09884911922747, -0.05556762331379 ]
      - [  0.14269350926331,  0.03836543316813 ]
      - [ -0.05508202617474, -0.01295157232991 ]
    - # atom 3
      - [ -0.19338213993515,  0.05062886198825 ]
      - [ -0.07794367112498,  0.02040622533954 ]
      - [  0.88600725204176, -0.23196318561442 ]
    - # atom 4
      - [ -0.08916001551723,  0.02334274353182 ]
      - [ -0.06585066331200,  0.01724018460910 ]
      - [ -0.15543694568757,  0.04069452848438 ]
  - # 6
    frequency:    6.7209166237
    eigenvector:
    - # atom 1
      - [ -0.34690590673192,  0.00000000000000 ]
      - [ -0.10490022209702,  0.11329694266039 ]
      - [  0.00446943868414, -0.03303018305504 ]
    - # atom 2
      - [  0.06680813132669, -0.34041207644905 ]
      - [  0.13137808908620, -0.08111751614468 ]
      - [ -0.03327261810731, -0.00197527573368 ]
    - # atom 3
      - [  0.37567791757844,  0.45657377980154 ]
      - [  0.33904416261010,  0.41205156793852 ]
      - [  0.12259243948342,  0.14899064346746 ]
    - # atom 4
      - [ -0.00333858979574, -0.00405749902303 ]