mesh: [     8,     8,     8 ]
nqpoint: 20     
reciprocal_lattice:
- [   0.17573761,   0.00000000,   0.00000000 ] # a*
- [   0.00000000,   0.17573761,   0.00000000 ] # b*
- [   0.00000000,   0.00000000,   0.17573761 ] # c*
natom:   8      
lattice:
- [     5.690301476175671,     0.000000000000000,     0.000000000000000 ] # a
- [     0.000000000000000,     5.690301476175671,     0.000000000000000 ] # b
- [     0.000000000000000,     0.000000000000000,     5.690301476175671 ] # c
points:
- symbol: Na # 1
  coordinates: [  0.000000000000000,  0.000000000000000,  0.000000000000000 ]
  mass: 22.989769
- symbol: Na # 2
  coordinates: [  0.000000000000000,  0.500000000000000,  0.500000000000000 ]
  mass: 22.989769
- symbol: Na # 3
  coordinates: [  0.500000000000000,  0.000000000000000,  0.500000000000000 ]
  mass: 22.989769
- symbol: Na # 4
  coordinates: [  0.500000000000000,  0.500000000000000,  0.000000000000000 ]
  mass: 22.989769
- symbol: Cl # 5
  coordinates: [  0.500000000000000,  0.500000000000000,  0.500000000000000 ]
  mass: 35.453000
- symbol: Cl # 6
  coordinates: [  0.500000000000000,  0.000000000000000,  0.000000000000000 ]
  mass: 35.453000
- symbol: Cl # 7
  coordinates: [  0.000000000000000,  0.500000000000000,  0.000000000000000 ]
  mass: 35.453000
- symbol: Cl # 8
  coordinates: [  0.000000000000000,  0.000000000000000,  0.500000000000000 ]
  mass: 35.453000

phonon:
- q-position: [    0.0625000,    0.0625000,    0.0625000 ]
  distance_from_gamma:  0.019024155
  weight: 8    
  band:
  - # 1
    frequency:     0.4186829180
    eigenvector:
    - # atom 1
      - [ -0.12549024623037,  0.00000000000000 ]
      - [ -0.13362143174900,  0.00000000000000 ]
      - [  0.26054746163391, -0.00000000000000 ]
    - # atom 2
      - [ -0.12576231246238,  0.00000000000000 ]
      - [ -0.13388346407714,  0.00000000000000 ]
      - [  0.26052363232662, -0.00000000000000 ]
    - # atom 3
      - [ -0.12531254727158,  0.00000000000000 ]
      - [ -0.13330601885697,  0.00000000000000 ]
      - [  0.25872166212199, -0.00000000000000 ]
    - # atom 4
      - [ -0.12485887327665,  0.00000000000000 ]
      - [ -0.13278890178472,  0.00000000000000 ]
      - [  0.25866944467883, -0.00000000000000 ]
    - # atom 5
      - [ -0.15256013540888,  0.00000000000000 ]
      - [ -0.16163648511182,  0.00000000000000 ]
      - [  0.31433098840035, -0.00000000000000 ]
    - # atom 6
      - [ -0.15201762428001,  0.00000000000000 ]
      - [ -0.16109301384031,  0.00000000000000 ]
      - [  0.31434857264174, -0.00000000000000 ]
    - # atom 7
      - [ -0.15226314484727, -0.00000000000000 ]
      - [ -0.16270899981692,  0.00000000000000 ]
      - [  0.31684827781512, -0.00000000000000 ]
    - # atom 8
      - [ -0.15249792512581,  0.00000000000000 ]
      - [ -0.16299471273614,  0.00000000000000 ]
      - [  0.31686214320225, -0.00000000000000 ]
  - # 2
    frequency:     0.4196037068
    eigenvector:
    - # atom 1
      - [  0.22718556130179,  0.00000000000000 ]
      - [ -0.22287722780821,  0.00000000000000 ]
      - [ -0.00477088247386, -0.00000000000000 ]
    - # atom 2
      - [  0.22775456318785, -0.00000000000000 ]
      - [ -0.22337784100270,  0.00000000000000 ]
      - [ -0.00476482821554, -0.00000000000000 ]
    - # atom 3
      - [  0.22691669808409, -0.00000000000000 ]
      - [ -0.22206513445044,  0.00000000000000 ]
      - [ -0.00456191726837, -0.00000000000000 ]
    - # atom 4
      - [  0.22604952858374, -0.00000000000000 ]
      - [ -0.22115428729320,  0.00000000000000 ]
      - [ -0.00455516426670, -0.00000000000000 ]
    - # atom 5
      - [  0.27615007186312, -0.00000000000000 ]
      - [ -0.26938892661272,  0.00000000000000 ]
      - [ -0.00566951406174, -0.00000000000000 ]
    - # atom 6
      - [  0.27511192895056, -0.00000000000000 ]
      - [ -0.26843597735870,  0.00000000000000 ]
      - [ -0.00566392610561, -0.00000000000000 ]
    - # atom 7
      - [  0.27554560467875, -0.00000000000000 ]
      - [ -0.27104413368534,  0.00000000000000 ]
      - [ -0.00567170673229, -0.00000000000000 ]
    - # atom 8
      - [  0.27603265814717, -0.00000000000000 ]
      - [ -0.27158311188381,  0.00000000000000 ]
      - [ -0.00566594328481, -0.00000000000000 ]
  - # 3
    frequency:     0.7218332435
    eigenvector:
    - # atom 1
      - [  0.18210544381354,  0.00000000000000 ]
      - [  0.18246119007868, -0.00000000000000 ]
      - [  0.18198159895056, -0.00000000000000 ]
    - # atom 2
      - [  0.18255003517706, -0.00000000000000 ]
      - [  0.18285034975542, -0.00000000000000 ]
      - [  0.18197126525563, -0.00000000000000 ]
    - # atom 3
      - [  0.18183093772944, -0.00000000000000 ]
      - [  0.18145552189073, -0.00000000000000 ]
      - [  0.18032160001639, -0.00000000000000 ]
    - # atom 4
      - [  0.18114344527943, -0.00000000000000 ]
      - [  0.18071256380513, -0.00000000000000 ]
      - [  0.18026167753938, -0.00000000000000 ]
    - # atom 5
      - [  0.22495908896208, -0.00000000000000 ]
      - [  0.22391780819242, -0.00000000000000 ]
      - [  0.22296657998878, -0.00000000000000 ]
    - # atom 6
      - [  0.22411095994925, -0.00000000000000 ]
      - [  0.22313160895716, -0.00000000000000 ]
      - [  0.22297209045021, -0.00000000000000 ]
    - # atom 7
      - [  0.22452054661153, -0.00000000000000 ]
      - [  0.22541657097451, -0.00000000000000 ]
      - [  0.22481824777951, -0.00000000000000 ]
    - # atom 8
      - [  0.22488843977315, -0.00000000000000 ]
      - [  0.22584093406278, -0.00000000000000 ]
      - [  0.22484001843813, -0.00000000000000 ]
  - # 4
    frequency:     2.2194695694
    eigenvector:
    - # atom 1
      - [  0.41364439983510,  0.00000000000000 ]
      - [ -0.14641040089161,  0.00000000000000 ]
      - [ -0.12880412613777, -0.00000000000000 ]
    - # atom 2
      - [ -0.41294558415539,  0.00000000000000 ]
      - [  0.13362679523227, -0.00000000000000 ]
      - [  0.13732500831374,  0.00000000000000 ]
    - # atom 3
      - [ -0.00557597334821,  0.00000000000000 ]
      - [  0.14387401339476, -0.00000000000000 ]
      - [ -0.13487234840806, -0.00000000000000 ]
    - # atom 4
      - [  0.00594864508783, -0.00000000000000 ]
      - [ -0.13134141314607,  0.00000000000000 ]
      - [  0.12616318917788,  0.00000000000000 ]
    - # atom 5
      - [ -0.41791668324399,  0.00000000000000 ]
      - [  0.14953288670618, -0.00000000000000 ]
      - [  0.13172962790866,  0.00000000000000 ]
    - # atom 6
      - [  0.41848881649787, -0.00000000000000 ]
      - [ -0.13712631349173,  0.00000000000000 ]
      - [ -0.14070359154872, -0.00000000000000 ]
    - # atom 7
      - [  0.00654619414084, -0.00000000000000 ]
      - [ -0.15459569658801,  0.00000000000000 ]
      - [  0.14507613524499,  0.00000000000000 ]
    - # atom 8
      - [ -0.00554283488412,  0.00000000000000 ]
      - [  0.14105437879407, -0.00000000000000 ]
      - [ -0.13598166822218, -0.00000000000000 ]
  - # 5
    frequency:     2.2428131303
    eigenvector:
    - # atom 1
      - [  0.01212391091712,  0.00000000000000 ]
      - [  0.25196040959667,  0.00000000000000 ]
      - [ -0.25401639685335, -0.00000000000000 ]
    - # atom 2
      - [ -0.01199986238410,  0.00000000000000 ]
      - [  0.23198500958024, -0.00000000000000 ]
      - [ -0.22967062440861,  0.00000000000000 ]
    - # atom 3
      - [  0.01221859367349,  0.00000000000000 ]
      - [ -0.25450888137119, -0.00000000000000 ]
      - [  0.23209143415503, -0.00000000000000 ]
    - # atom 4
      - [ -0.01208352674797, -0.00000000000000 ]
      - [ -0.23443691553714,  0.00000000000000 ]
      - [  0.25606730727347,  0.00000000000000 ]
    - # atom 5
      - [ -0.01228418585104,  0.00000000000000 ]
      - [ -0.26716744675351, -0.00000000000000 ]
      - [  0.26923110203501,  0.00000000000000 ]
    - # atom 6
      - [  0.01216514388231, -0.00000000000000 ]
      - [ -0.24600013311019,  0.00000000000000 ]
      - [  0.24420936082669, -0.00000000000000 ]
    - # atom 7
      - [ -0.01331088042365, -0.00000000000000 ]
      - [  0.26570834649377,  0.00000000000000 ]
      - [ -0.24220037242748,  0.00000000000000 ]
    - # atom 8
      - [  0.01320913672816,  0.00000000000000 ]
      - [  0.24462490479667, -0.00000000000000 ]
      - [ -0.26813317868411, -0.00000000000000 ]
  - # 6
    frequency:     2.2557227811
    eigenvector:
    - # atom 1
      - [  0.00802519752296,  0.00000000000000 ]
      - [  0.19187443288314, -0.00000000000000 ]
      - [ -0.19062873821572,  0.00000000000000 ]
    - # atom 2
      - [ -0.00830844372937,  0.00000000000000 ]
      - [ -0.21239941471683,  0.00000000000000 ]
      - [  0.22037184759445, -0.00000000000000 ]
    - # atom 3
      - [  0.26669200041103, -0.00000000000000 ]
      - [ -0.18698608183808,  0.00000000000000 ]
      - [ -0.21547138131104,  0.00000000000000 ]
    - # atom 4
      - [ -0.26614621276226,  0.00000000000000 ]
      - [  0.20803441941140, -0.00000000000000 ]
      - [  0.18541277738139, -0.00000000000000 ]
    - # atom 5
      - [ -0.00862484776424,  0.00000000000000 ]
      - [ -0.19585606318829,  0.00000000000000 ]
      - [  0.19524867644625, -0.00000000000000 ]
    - # atom 6
      - [  0.00761841806652,  0.00000000000000 ]
      - [  0.21921988217088, -0.00000000000000 ]
      - [ -0.22681596024153,  0.00000000000000 ]
    - # atom 7
      - [ -0.29111710904838,  0.00000000000000 ]
      - [  0.20315855663447, -0.00000000000000 ]
      - [  0.23319312026244, -0.00000000000000 ]
    - # atom 8
      - [  0.29059652664387, -0.00000000000000 ]
      - [ -0.22446244439570,  0.00000000000000 ]
      - [ -0.20169182277803,  0.00000000000000 ]
  - # 7
    frequency:     2.3164986495
    eigenvector:
    - # atom 1
      - [  0.27517366034391,  0.00000000000000 ]
      - [  0.21914895879458, -0.00000000000000 ]
      - [  0.22066307153749, -0.00000000000000 ]
    - # atom 2
      - [ -0.27401475208119,  0.00000000000000 ]
      - [ -0.20224480774627, -0.00000000000000 ]
      - [ -0.19467860143291, -0.00000000000000 ]
    - # atom 3
      - [ -0.00859956221340,  0.00000000000000 ]
      - [ -0.20403910524253,  0.00000000000000 ]
      - [  0.17907603959079,  0.00000000000000 ]
    - # atom 4
      - [  0.00837326041224, -0.00000000000000 ]
      - [  0.18749260197024,  0.00000000000000 ]
      - [ -0.20503696699236,  0.00000000000000 ]
    - # atom 5
      - [ -0.27953104975084,  0.00000000000000 ]
      - [ -0.22304670745502,  0.00000000000000 ]
      - [ -0.22554279832051,  0.00000000000000 ]
    - # atom 6
      - [  0.27945703786229, -0.00000000000000 ]
      - [  0.20658630020958,  0.00000000000000 ]
      - [  0.19774629873369,  0.00000000000000 ]
    - # atom 7
      - [  0.00961020127014, -0.00000000000000 ]
      - [  0.22478804213733, -0.00000000000000 ]
      - [ -0.19866146235736, -0.00000000000000 ]
    - # atom 8
      - [ -0.00874426934151,  0.00000000000000 ]
      - [ -0.20674449434521, -0.00000000000000 ]
      - [  0.22603857801798, -0.00000000000000 ]
  - # 8
    frequency:     2.3317786628
    eigenvector:
    - # atom 1
      - [ -0.00456950717449,  0.00000000000000 ]
      - [  0.23258384352199, -0.00000000000001 ]
      - [  0.22974890254485, -0.00000000000001 ]
    - # atom 2
      - [  0.01667056262974, -0.00000000000000 ]
      - [  0.24967437958540, -0.00000000000001 ]
      - [  0.25215585580782, -0.00000000000001 ]
    - # atom 3
      - [ -0.01807769226753,  0.00000000000000 ]
      - [ -0.23604986043580,  0.00000000000001 ]
      - [ -0.25338270073857,  0.00000000000001 ]
    - # atom 4
      - [  0.00596623069149, -0.00000000000000 ]
      - [ -0.25076358806087,  0.00000000000001 ]
      - [ -0.23206154086057,  0.00000000000001 ]
    - # atom 5
      - [  0.00707549511663, -0.00000000000000 ]
      - [ -0.24983596838417,  0.00000000000001 ]
      - [ -0.24668396556585,  0.00000000000001 ]
    - # atom 6
      - [ -0.01451488213893,  0.00000000000000 ]
      - [ -0.26645586192691,  0.00000000000001 ]
      - [ -0.26963235950762,  0.00000000000001 ]
    - # atom 7
      - [  0.01670027998892, -0.00000000000000 ]
      - [  0.24744928870045, -0.00000000000001 ]
      - [  0.26743192161573, -0.00000000000001 ]
    - # atom 8
      - [ -0.00977879055192,  0.00000000000000 ]
      - [  0.26450885558247, -0.00000000000001 ]
      - [  0.24404786755504, -0.00000000000001 ]
  - # 9
    frequency:     2.3509251013
    eigenvector:
    - # atom 1
      - [  0.00548332705795,  0.00000000000000 ]
      - [ -0.12328057859610,  0.00000000000000 ]
      - [  0.14178618268963, -0.00000000000000 ]
    - # atom 2
      - [ -0.00597487568862,  0.00000000000000 ]
      - [  0.13685773124536, -0.00000000000000 ]
      - [ -0.13189286019677,  0.00000000000000 ]
    - # atom 3
      - [  0.39347796953621, -0.00000000000000 ]
      - [  0.12685192888934, -0.00000000000000 ]
      - [  0.13471250991436, -0.00000000000000 ]
    - # atom 4
      - [ -0.39293842656390,  0.00000000000000 ]
      - [ -0.14126162965211,  0.00000000000000 ]
      - [ -0.14522876204558,  0.00000000000000 ]
    - # atom 5
      - [ -0.00629486812854,  0.00000000000000 ]
      - [  0.12798579168456, -0.00000000000000 ]
      - [ -0.14815402225614,  0.00000000000000 ]
    - # atom 6
      - [  0.00485490058132,  0.00000000000000 ]
      - [ -0.14368540122060,  0.00000000000000 ]
      - [  0.13736163108158, -0.00000000000000 ]
    - # atom 7
      - [ -0.43487149004782,  0.00000000000000 ]
      - [ -0.13753877155043,  0.00000000000000 ]
      - [ -0.14634681957975,  0.00000000000000 ]
    - # atom 8
      - [  0.43436715476539, -0.00000000000000 ]
      - [  0.15231219816357, -0.00000000000000 ]
      - [  0.15737909401237, -0.00000000000000 ]
  - # 10
    frequency:     3.8050069176
    eigenvector:
    - # atom 1
      - [  0.28435729274445,  0.00000000000000 ]
      - [ -0.26681955640757,  0.00000000000000 ]
      - [ -0.01080459751358, -0.00000000000000 ]
    - # atom 2
      - [  0.28493725277878, -0.00000000000000 ]
      - [ -0.26576617776315,  0.00000000000000 ]
      - [ -0.01034244821501, -0.00000000000000 ]
    - # atom 3
      - [  0.27354676064413,  0.00000000000000 ]
      - [ -0.27079569476987,  0.00000000000000 ]
      - [ -0.01169760647735, -0.00000000000000 ]
    - # atom 4
      - [  0.27017826395258,  0.00000000000000 ]
      - [ -0.26561309557064,  0.00000000000000 ]
      - [ -0.01118131673671, -0.00000000000000 ]
    - # atom 5
      - [ -0.22622919111740, -0.00000000000000 ]
      - [  0.22245496810958, -0.00000000000000 ]
      - [  0.00908688331717,  0.00000000000000 ]
    - # atom 6
      - [ -0.22563255615647, -0.00000000000000 ]
      - [  0.22064367096686, -0.00000000000000 ]
      - [  0.00957153880589,  0.00000000000000 ]
    - # atom 7
      - [ -0.22994275599349,  0.00000000000000 ]
      - [  0.21671775224323, -0.00000000000000 ]
      - [  0.00851878921140,  0.00000000000000 ]
    - # atom 8
      - [ -0.23453043967558,  0.00000000000000 ]
      - [  0.22023720144361, -0.00000000000000 ]
      - [  0.00903005169995,  0.00000000000000 ]
  - # 11
    frequency:     3.8057566770
    eigenvector:
    - # atom 1
      - [ -0.15133845836144,  0.00000000000000 ]
      - [ -0.16766338800610,  0.00000000000000 ]
      - [  0.31537153818763, -0.00000000000000 ]
    - # atom 2
      - [ -0.15099473073514,  0.00000000000000 ]
      - [ -0.16647717771224,  0.00000000000000 ]
      - [  0.31522820847379, -0.00000000000000 ]
    - # atom 3
      - [ -0.14576661368641, -0.00000000000000 ]
      - [ -0.16879834249264,  0.00000000000000 ]
      - [  0.31473095872914, -0.00000000000000 ]
    - # atom 4
      - [ -0.14372797418592, -0.00000000000000 ]
      - [ -0.16535295276312,  0.00000000000000 ]
      - [  0.31496831712410, -0.00000000000000 ]
    - # atom 5
      - [  0.12009606529373,  0.00000000000000 ]
      - [  0.13846241768326, -0.00000000000000 ]
      - [ -0.25920125188155,  0.00000000000000 ]
    - # atom 6
      - [  0.12046872472023,  0.00000000000000 ]
      - [  0.13777296793045, -0.00000000000000 ]
      - [ -0.25942405146831,  0.00000000000000 ]
    - # atom 7
      - [  0.12198345382830, -0.00000000000000 ]
      - [  0.13580867889042, -0.00000000000000 ]
      - [ -0.25908065484343,  0.00000000000000 ]
    - # atom 8
      - [  0.12469906233065, -0.00000000000000 ]
      - [  0.13813182087211, -0.00000000000000 ]
      - [ -0.25882561066450,  0.00000000000000 ]
  - # 12
    frequency:     3.9911283589
    eigenvector:
    - # atom 1
      - [  0.38746237222056,  0.00000000000000 ]
      - [  0.21381287072574,  0.00000000000000 ]
      - [  0.21538721092905,  0.00000000000000 ]
    - # atom 2
      - [ -0.39949515216131, -0.00000000000000 ]
      - [ -0.22744365957612, -0.00000000000000 ]
      - [ -0.21790825864505, -0.00000000000000 ]
    - # atom 3
      - [  0.01291135293399,  0.00000000000000 ]
      - [  0.14272078327697,  0.00000000000000 ]
      - [ -0.11180104063070,  0.00000000000000 ]
    - # atom 4
      - [  0.00018334135218,  0.00000000000000 ]
      - [ -0.13173174723530, -0.00000000000000 ]
      - [  0.11544574472528,  0.00000000000000 ]
    - # atom 5
      - [  0.38681493070129,  0.00000000000000 ]
      - [  0.16053742013128,  0.00000000000000 ]
      - [  0.16492117671368,  0.00000000000000 ]
    - # atom 6
      - [ -0.39439948264465, -0.00000000000000 ]
      - [ -0.17189193800159, -0.00000000000000 ]
      - [ -0.16834331749070, -0.00000000000000 ]
    - # atom 7
      - [  0.00909884048494,  0.00000000000000 ]
      - [  0.08382889665554,  0.00000000000000 ]
      - [ -0.05816470782531,  0.00000000000000 ]
    - # atom 8
      - [ -0.00303829639675,  0.00000000000000 ]
      - [ -0.07084988136231,  0.00000000000000 ]
      - [  0.06067497849613,  0.00000000000000 ]
  - # 13
    frequency:     4.0008881547
    eigenvector:
    - # atom 1
      - [  0.29687434010089,  0.00000000000000 ]
      - [  0.18381867724162, -0.00000000000000 ]
      - [  0.19248332276138, -0.00000000000000 ]
    - # atom 2
      - [  0.28232322964884,  0.00000000000000 ]
      - [  0.18373611083645,  0.00000000000000 ]
      - [  0.15091524167903,  0.00000000000000 ]
    - # atom 3
      - [ -0.32983103677379, -0.00000000000000 ]
      - [ -0.23613232596095, -0.00000000000000 ]
      - [ -0.22571419715500, -0.00000000000000 ]
    - # atom 4
      - [ -0.26617675107741,  0.00000000000000 ]
      - [ -0.11993988635118,  0.00000000000000 ]
      - [ -0.11150517395658,  0.00000000000000 ]
    - # atom 5
      - [  0.20838281841442, -0.00000000000000 ]
      - [  0.17893393656101, -0.00000000000000 ]
      - [  0.17092527520461, -0.00000000000000 ]
    - # atom 6
      - [  0.19387790302683,  0.00000000000000 ]
      - [  0.16202989008007,  0.00000000000000 ]
      - [  0.15095544772153,  0.00000000000000 ]
    - # atom 7
      - [ -0.22499452994014, -0.00000000000000 ]
      - [ -0.22080269597061, -0.00000000000000 ]
      - [ -0.20605524501863, -0.00000000000000 ]
    - # atom 8
      - [ -0.16530415243725,  0.00000000000000 ]
      - [ -0.12880235011576,  0.00000000000000 ]
      - [ -0.12077279749137,  0.00000000000000 ]
  - # 14
    frequency:     4.0061389761
    eigenvector:
    - # atom 1
      - [  0.03826504556753,  0.00000000000000 ]
      - [  0.04594199780944, -0.00000000000000 ]
      - [ -0.00907319911487, -0.00000000000000 ]
    - # atom 2
      - [  0.05734253084401, -0.00000000000000 ]
      - [ -0.01457638276421,  0.00000000000000 ]
      - [  0.09047916525090,  0.00000000000000 ]
    - # atom 3
      - [  0.08851650477383,  0.00000000000000 ]
      - [  0.35536631553310, -0.00000000000000 ]
      - [  0.33387225705519, -0.00000000000000 ]
    - # atom 4
      - [ -0.18577698372036,  0.00000000000000 ]
      - [ -0.38952668406635,  0.00000000000000 ]
      - [ -0.41050535783960,  0.00000000000000 ]
    - # atom 5
      - [  0.02337454962867,  0.00000000000000 ]
      - [ -0.00718193490240, -0.00000000000000 ]
      - [  0.04246525856841, -0.00000000000000 ]
    - # atom 6
      - [  0.04241988631224, -0.00000000000000 ]
      - [  0.03892543679421,  0.00000000000000 ]
      - [  0.03075953956177,  0.00000000000000 ]
    - # atom 7
      - [  0.09314269656093, -0.00000000000000 ]
      - [  0.27827685258821, -0.00000000000000 ]
      - [  0.25173061007274, -0.00000000000000 ]
    - # atom 8
      - [ -0.15809166038548,  0.00000000000000 ]
      - [ -0.30825289772418,  0.00000000000000 ]
      - [ -0.32886031655211,  0.00000000000000 ]
  - # 15
    frequency:     4.0116252535
    eigenvector:
    - # atom 1
      - [  0.23719238928439,  0.00000000000000 ]
      - [ -0.31185822012897,  0.00000000000000 ]
      - [ -0.30305439547138,  0.00000000000000 ]
    - # atom 2
      - [ -0.22756162509788,  0.00000000000000 ]
      - [  0.30304644285061,  0.00000000000000 ]
      - [  0.32177680358691,  0.00000000000000 ]
    - # atom 3
      - [ -0.00246141239877, -0.00000000000000 ]
      - [  0.10108389361404,  0.00000000000000 ]
      - [ -0.12122063182257,  0.00000000000000 ]
    - # atom 4
      - [ -0.00689313636508, -0.00000000000000 ]
      - [ -0.09345367566088, -0.00000000000000 ]
      - [  0.10348329866415, -0.00000000000000 ]
    - # atom 5
      - [  0.23293696801704, -0.00000000000000 ]
      - [ -0.26898314594769,  0.00000000000000 ]
      - [ -0.26327987167379,  0.00000000000000 ]
    - # atom 6
      - [ -0.22583354513695,  0.00000000000000 ]
      - [  0.26201724466363,  0.00000000000000 ]
      - [  0.28024487662151, -0.00000000000000 ]
    - # atom 7
      - [ -0.00174345765793,  0.00000000000000 ]
      - [  0.12891284486454,  0.00000000000000 ]
      - [ -0.14591370419453,  0.00000000000000 ]
    - # atom 8
      - [ -0.00601245038925, -0.00000000000000 ]
      - [ -0.12071250603102, -0.00000000000000 ]
      - [  0.12819224068786, -0.00000000000000 ]
  - # 16
    frequency:     4.0198992169
    eigenvector:
    - # atom 1
      - [  0.00528896826128,  0.00000000000000 ]
      - [  0.25184724244190, -0.00000000000001 ]
      - [ -0.26998801299743,  0.00000000000001 ]
    - # atom 2
      - [ -0.01614606256724,  0.00000000000000 ]
      - [  0.25775723250775, -0.00000000000001 ]
      - [ -0.24586721675889,  0.00000000000001 ]
    - # atom 3
      - [  0.01715828513981, -0.00000000000000 ]
      - [ -0.23591305018473,  0.00000000000001 ]
      - [  0.27353217066276, -0.00000000000001 ]
    - # atom 4
      - [ -0.00780818043874,  0.00000000000000 ]
      - [ -0.27099798162655,  0.00000000000001 ]
      - [  0.24124657419585, -0.00000000000001 ]
    - # atom 5
      - [  0.00753700333809, -0.00000000000000 ]
      - [  0.23808018646626, -0.00000000000001 ]
      - [ -0.25243920030909,  0.00000000000001 ]
    - # atom 6
      - [ -0.01353696461107,  0.00000000000000 ]
      - [  0.24477677548516, -0.00000000000001 ]
      - [ -0.23686361821042,  0.00000000000001 ]
    - # atom 7
      - [  0.01503704594299, -0.00000000000000 ]
      - [ -0.22639214748434,  0.00000000000001 ]
      - [  0.25550781679141, -0.00000000000001 ]
    - # atom 8
      - [ -0.00779935527786,  0.00000000000000 ]
      - [ -0.25684713400041,  0.00000000000001 ]
      - [  0.23359884372564, -0.00000000000001 ]
  - # 17
    frequency:     4.0324354771
    eigenvector:
    - # atom 1
      - [  0.00261422448474,  0.00000000000000 ]
      - [ -0.24660922377988,  0.00000000000002 ]
      - [  0.22631251418830, -0.00000000000002 ]
    - # atom 2
      - [ -0.00528143500395,  0.00000000000000 ]
      - [  0.23923838143691, -0.00000000000002 ]
      - [ -0.24635500249858,  0.00000000000002 ]
    - # atom 3
      - [ -0.37980051307730,  0.00000000000004 ]
      - [  0.07901411433101, -0.00000000000001 ]
      - [  0.08099430193327, -0.00000000000001 ]
    - # atom 4
      - [  0.38822544509771, -0.00000000000004 ]
      - [ -0.07519231523194,  0.00000000000001 ]
      - [ -0.06311755133043,  0.00000000000001 ]
    - # atom 5
      - [  0.00043600304120,  0.00000000000000 ]
      - [ -0.20990525393692,  0.00000000000002 ]
      - [  0.19382960687560, -0.00000000000002 ]
    - # atom 6
      - [ -0.00783330160225,  0.00000000000000 ]
      - [  0.20640858218006, -0.00000000000002 ]
      - [ -0.21088323477663,  0.00000000000002 ]
    - # atom 7
      - [ -0.34920324893697,  0.00000000000003 ]
      - [  0.10278640239974, -0.00000000000001 ]
      - [  0.10337208244695, -0.00000000000001 ]
    - # atom 8
      - [  0.35247977345043, -0.00000000000003 ]
      - [ -0.09613481450828,  0.00000000000001 ]
      - [ -0.08456959970529,  0.00000000000001 ]
  - # 18
    frequency:     4.1052645709
    eigenvector:
    - # atom 1
      - [ -0.14336413442454,  0.00000000000000 ]
      - [  0.05552267151498, -0.00000000000000 ]
      - [  0.01269906218199, -0.00000000000000 ]
    - # atom 2
      - [  0.26799739955780,  0.00000000000000 ]
      - [ -0.12794137824300, -0.00000000000000 ]
      - [ -0.09142737848635, -0.00000000000000 ]
    - # atom 3
      - [ -0.08159602202642, -0.00000000000000 ]
      - [  0.38942393829848,  0.00000000000000 ]
      - [ -0.30985617730597, -0.00000000000000 ]
    - # atom 4
      - [ -0.04355819520531, -0.00000000000000 ]
      - [ -0.31975426801640, -0.00000000000000 ]
      - [  0.39210079663125,  0.00000000000000 ]
    - # atom 5
      - [ -0.15923261097459, -0.00000000000000 ]
      - [ -0.00972381072492, -0.00000000000000 ]
      - [ -0.04436285768129, -0.00000000000000 ]
    - # atom 6
      - [  0.23664757296964,  0.00000000000000 ]
      - [ -0.05597955087878, -0.00000000000000 ]
      - [ -0.03190638719889, -0.00000000000000 ]
    - # atom 7
      - [ -0.05581274045191, -0.00000000000000 ]
      - [  0.29193184130939,  0.00000000000000 ]
      - [ -0.22590712180429, -0.00000000000000 ]
    - # atom 8
      - [ -0.02121342442959, -0.00000000000000 ]
      - [ -0.22466145205282, -0.00000000000000 ]
      - [  0.29930203316329,  0.00000000000000 ]
  - # 19
    frequency:     4.1077421719
    eigenvector:
    - # atom 1
      - [  0.32690371833265,  0.00000000000000 ]
      - [ -0.15998923948776,  0.00000000000000 ]
      - [ -0.22934125771466, -0.00000000000000 ]
    - # atom 2
      - [  0.23856583268125,  0.00000000000000 ]
      - [ -0.19839768851638, -0.00000000000000 ]
      - [ -0.13038803714913,  0.00000000000000 ]
    - # atom 3
      - [ -0.31776457505734, -0.00000000000000 ]
      - [  0.11170147428280,  0.00000000000000 ]
      - [  0.26717957167260, -0.00000000000000 ]
    - # atom 4
      - [ -0.25958453736602,  0.00000000000000 ]
      - [  0.25170483552062, -0.00000000000000 ]
      - [  0.09917104949831,  0.00000000000000 ]
    - # atom 5
      - [  0.22389846674217, -0.00000000000000 ]
      - [ -0.14545850569460,  0.00000000000000 ]
      - [ -0.19778546022527, -0.00000000000000 ]
    - # atom 6
      - [  0.13879343239581,  0.00000000000000 ]
      - [ -0.19272842791886, -0.00000000000000 ]
      - [ -0.14252377389576,  0.00000000000000 ]
    - # atom 7
      - [ -0.20404099231205, -0.00000000000000 ]
      - [  0.10879778902175,  0.00000000000000 ]
      - [  0.22409775535058, -0.00000000000000 ]
    - # atom 8
      - [ -0.15070168259683,  0.00000000000000 ]
      - [  0.22468652284583, -0.00000000000000 ]
      - [  0.11063286221295,  0.00000000000000 ]
  - # 20
    frequency:     4.1141459191
    eigenvector:
    - # atom 1
      - [  0.02496811939208,  0.00000000000000 ]
      - [ -0.32198220616246, -0.00000000000002 ]
      - [  0.28731324154917,  0.00000000000001 ]
    - # atom 2
      - [  0.04170304291782,  0.00000000000000 ]
      - [  0.28274097221471,  0.00000000000001 ]
      - [ -0.32613948534299, -0.00000000000002 ]
    - # atom 3
      - [  0.28872509688638,  0.00000000000002 ]
      - [ -0.04367320734142, -0.00000000000000 ]
      - [ -0.07105954011525, -0.00000000000000 ]
    - # atom 4
      - [ -0.36028986741602, -0.00000000000002 ]
      - [  0.08586994641311,  0.00000000000000 ]
      - [  0.11210637335503,  0.00000000000001 ]
    - # atom 5
      - [  0.01504571014723, -0.00000000000000 ]
      - [ -0.24774859340331, -0.00000000000001 ]
      - [  0.21001376339644,  0.00000000000001 ]
    - # atom 6
      - [  0.03154687637941,  0.00000000000000 ]
      - [  0.20921546524448,  0.00000000000001 ]
      - [ -0.24801089658204, -0.00000000000001 ]
    - # atom 7
      - [  0.26988625431275,  0.00000000000001 ]
      - [  0.01850215190222,  0.00000000000000 ]
      - [ -0.00231690259880, -0.00000000000000 ]
    - # atom 8
      - [ -0.31314306042434, -0.00000000000002 ]
      - [  0.01800067548577, -0.00000000000000 ]
      - [  0.03848629145306,  0.00000000000000 ]
  - # 21
    frequency:     4.3457651454
    eigenvector:
    - # atom 1
      - [ -0.00226300097113,  0.00000000000000 ]
      - [  0.14511091340251, -0.00000000000001 ]
      - [ -0.23067890905020,  0.00000000000001 ]
    - # atom 2
      - [ -0.00172802311604, -0.00000000000000 ]
      - [ -0.14450462210720,  0.00000000000001 ]
      - [  0.23099951902019, -0.00000000000001 ]
    - # atom 3
      - [  0.00393469022086, -0.00000000000000 ]
      - [  0.14545628429447, -0.00000000000001 ]
      - [  0.23119283362108, -0.00000000000001 ]
    - # atom 4
      - [  0.00055802575323,  0.00000000000000 ]
      - [ -0.14667166544131,  0.00000000000001 ]
      - [ -0.23115302770357,  0.00000000000001 ]
    - # atom 5
      - [  0.00081585729524,  0.00000000000000 ]
      - [ -0.23027031313677,  0.00000000000001 ]
      - [  0.35782807601406, -0.00000000000002 ]
    - # atom 6
      - [  0.00517411996333, -0.00000000000000 ]
      - [  0.23143749843836, -0.00000000000001 ]
      - [ -0.35798365344390,  0.00000000000002 ]
    - # atom 7
      - [  0.00681544196888, -0.00000000000000 ]
      - [ -0.21808708157181,  0.00000000000001 ]
      - [ -0.34936298016231,  0.00000000000002 ]
    - # atom 8
      - [ -0.01319536277734,  0.00000000000000 ]
      - [  0.21756339500965, -0.00000000000001 ]
      - [  0.34918845813100, -0.00000000000002 ]
  - # 22
    frequency:     4.3462661703