 +-------------------------------------------------+
 |                                                 |
 |      CCC   AA    SSS  TTTTT  EEEEE  PPPP        |
 |     C     A  A  S       T    E      P   P       |
 |     C     AAAA   SS     T    EEE    PPPP        |
 |     C     A  A     S    T    E      P           |
 |      CCC  A  A  SSS     T    EEEEE  P           |
 |                                                 |
 +-------------------------------------------------+
 |                                                 |
 | Welcome to Academic Release CASTEP version 17.21|          
 | Ab Initio Total Energy Program                  |
 |                                                 |
 | Authors:                                        |
 | M. Segall, M. Probert, C. Pickard, P. Hasnip,   |
 | S. Clark, K. Refson, J. R. Yates, M. Payne      |
 |                                                 |
 | Contributors:                                   |
 | P. Lindan, P. Haynes, J. White, V. Milman,      |
 | N. Govind, M. Gibson, P. Tulip, V. Cocula,      |
 | B. Montanari, D. Quigley, M. Glover,            |
 | L. Bernasconi, A. Perlov, M. Plummer,           |
 | E. McNellis, J. Meyer, J. Gale, D. Jochym       |
 | J. Aarons, B. Walker, R. Gillen, D. Jones       |
 | T. Green, I. J. Bush, C. J. Armstrong,          |
 | E. J. Higgins, E. L. Brown, M. S. McFly,        |
 | J. Wilkins, B-C. Shih, P. J. P. Byrne           |
 |                                                 |
 | Copyright (c) 2000 - 2017                       |
 |                                                 |
 |     Distributed under the terms of an           |
 |     Agreement between the United Kingdom        |
 |     Car-Parrinello (UKCP) Consortium,           |
 |     Daresbury Laboratory and Accelrys, Inc.     |
 |                                                 |
 | Please cite                                     |
 |                                                 |
 |     "First principles methods using CASTEP"     |
 |                                                 |
 |         Zeitschrift fuer Kristallographie       |
 |           220(5-6) pp. 567-570 (2005)           |
 |                                                 |
 | S. J. Clark, M. D. Segall, C. J. Pickard,       |
 | P. J. Hasnip, M. J. Probert, K. Refson,         |
 | M. C. Payne                                     |
 |                                                 |
 |       in all publications arising from          |
 |              your use of CASTEP                 |
 |                                                 |
 +-------------------------------------------------+
 
 
 Compiled for linux_x86_64_ifort15 on Tue, 18 Jul 2017 15:38:41 +0100
 from code version 
 056e886bd5a1+ Castep172_branch Mon, 15 May 2017 14:45:35 +0100
 Compiler: Intel Fortran 15.0.3.187; Optimisation: fast
 MATHLIBS: Intel MKL(11.2.3) (LAPACK version 3.5.0)
 FFT Lib : default
 Fundamental constants values: CODATA 2010
 
 Run started: Thu, 19 Apr 2018 14:30:02 +0100
 
 Atomic calculation performed for C: 1s2 2s2 2p2
 
 Converged in 56 iterations to an ae energy of -1018.807 eV
 
   ============================================================                
   | Pseudopotential Report - Date of generation 19-04-2018   |                
   ------------------------------------------------------------                
   | Element: C Ionic charge:  4.00 Level of theory: LDA      |                
   | Atomic Solver: Koelling-Harmon                           |                
   |                                                          |                
   |               Reference Electronic Structure             |                
   |         Orbital         Occupation         Energy        |                
   |            2s              2.000           -0.501        |                
   |            2p              2.000           -0.199        |                
   |                                                          |                
   |                 Pseudopotential Definition               |                
   |        Beta     l      e      Rc     scheme   norm       |                
   |          1      0   -0.501   1.395     qc      0         |                
   |          2      0    0.250   1.395     qc      0         |                
   |          3      1   -0.199   1.395     qc      0         |                
   |          4      1    0.250   1.395     qc      0         |                
   |         loc     2    0.000   1.395     pn      0         |                
   |                                                          |                
   | Augmentation charge Rinner = 0.983                       |                
   | Partial core correction Rc = 0.983                       |                
   ------------------------------------------------------------                
   | "2|1.4|10|12|13|20:21(qc=7)"                             |                
   ------------------------------------------------------------                
   |      Author: Chris J. Pickard, Cambridge University      |                
   ============================================================                
 
 Pseudo atomic calculation performed for C 2s2 2p2
 
 Converged in 16 iterations to a total energy of -147.8820 eV
 
 Calculation parallelised over 16 processes.
 Data is distributed by G-vector(4-way) and k-point(4-way)

 ************************************ Title ************************************
 

 ***************************** General Parameters ******************************
  
 output verbosity                               : normal  (1)
 write checkpoint data to                       : graphite.check
 type of calculation                            : band structure
 stress calculation                             : off
 density difference calculation                 : off
 electron localisation func (ELF) calculation   : off
 Hirshfeld analysis                             : off
 unlimited duration calculation
 timing information                             : on
 memory usage estimate                          : on
 write final potential to formatted file        : off
 write final density to formatted file          : on
 write BibTeX reference list                    : on
 write OTFG pseudopotential files               : on
 write electrostatic potential file             : on
 write bands file                               : on
 checkpoint writing                             : both castep_bin and check files
  
 output         length unit                     : A
 output           mass unit                     : amu
 output           time unit                     : ps
 output         charge unit                     : e
 output           spin unit                     : hbar/2
 output         energy unit                     : eV
 output          force unit                     : eV/A
 output       velocity unit                     : A/ps
 output       pressure unit                     : GPa
 output     inv_length unit                     : 1/A
 output      frequency unit                     : cm-1
 output force constant unit                     : eV/A**2
 output         volume unit                     : A**3
 output   IR intensity unit                     : (D/A)**2/amu
 output         dipole unit                     : D
 output         efield unit                     : eV/A/e
 output        entropy unit                     : J/mol/K
  
 wavefunctions paging                           : none
 random number generator seed                   : randomised (143002465)
 data distribution                              : optimal for this architecture
 optimization strategy                          : maximize speed(+++)

 *********************** Exchange-Correlation Parameters ***********************
  
 using functional                               : Local Density Approximation
 relativistic treatment                         : Koelling-Harmon
 DFT+D: Semi-empirical dispersion correction    : off

 ************************* Pseudopotential Parameters **************************
  
 pseudopotential representation                 : reciprocal space
 <beta|phi> representation                      : reciprocal space
 spin-orbit coupling                            : off

 **************************** Basis Set Parameters *****************************
  
 basis set accuracy                             : MEDIUM
 plane wave basis set cut-off                   :   326.5366   eV
 size of standard grid                          :     1.7500
 size of   fine   gmax                          :    16.2010   1/A
 finite basis set correction                    : none

 **************************** Electronic Parameters ****************************
  
 number of  electrons                           :  16.00    
 net charge of system                           :  0.000    
 treating system as non-spin-polarized
 number of bands                                :          8

 ********************* Electronic Minimization Parameters **********************
  
 Method: Treating system as non-metallic,
         and number of  SD  steps               :          1
         and number of  CG  steps               :          4
  
 total energy / atom convergence tol.           : 0.1000E-04   eV
 max force / atom convergence tol.              : ignored
 convergence tolerance window                   :          3   cycles
 max. number of SCF cycles                      :         30
 periodic dipole correction                     : NONE

 *********************** Population Analysis Parameters ************************
  
 Population analysis with cutoff                :  3.000       A

 ************************** Band Structure Parameters **************************
  
 max. number of iterations                      :         60
 max. CG steps in BS calc                       :         25
 number of bands / k-point                      :         23
 band convergence tolerance                     : 0.1000E-05   eV
 write orbitals file                            : on

 *******************************************************************************
  
 
                           -------------------------------
                                      Unit Cell
                           -------------------------------
        Real Lattice(A)                      Reciprocal Lattice(1/A)
   2.1304225  -1.2300000   0.0000000        2.9492673   0.0000000   0.0000000
  -0.0000000   2.4600000   0.0000000        1.4746336   2.5541404   0.0000000
   0.0000000   0.0000000   6.8000000        0.0000000   0.0000000   0.9239978
 
                       Lattice parameters(A)       Cell Angles
                    a =    2.460000          alpha =   90.000000
                    b =    2.460000          beta  =   90.000000
                    c =    6.800000          gamma =  120.000000
 
                       Current cell volume =   35.637707       A**3
                                   density =    1.348089   AMU/A**3
                                           =    2.238554     g/cm^3
 
                           -------------------------------
                                     Cell Contents
                           -------------------------------
                         Total number of ions in cell =    4
                      Total number of species in cell =    1
                        Max number of any one species =    4
 
            xxxxxxxxxxxxxxxxxxxxxxxxxxxxxxxxxxxxxxxxxxxxxxxxxxxxxxxxxxxx
            x  Element    Atom        Fractional coordinates of atoms  x
            x            Number           u          v          w      x
            x----------------------------------------------------------x
            x  C            1         0.000000   0.000000   0.250000   x 
            x  C            2         0.000000   0.000000   0.750000   x 
            x  C            3         0.333333   0.666667   0.250000   x 
            x  C            4        -0.333333  -0.666667   0.750000   x 
            xxxxxxxxxxxxxxxxxxxxxxxxxxxxxxxxxxxxxxxxxxxxxxxxxxxxxxxxxxxx
 
 
                         No user defined ionic velocities
 
                           -------------------------------
                                   Details of Species
                           -------------------------------
 
                               Mass of species in AMU
                                    C   12.0107000
 
                          Electric Quadrupole Moment (Barn)
                                    C    0.0332700 Isotope 11
 
                          Files used for pseudopotentials:
                                    C 2|1.4|10|12|13|20:21(qc=7)
 
                           -------------------------------
                              k-Points For BZ Sampling
                           -------------------------------
                       MP grid size for SCF calculation is 10 10  3
                            with an offset of   0.000  0.000  0.000
                       Number of kpoints used =            60
 
                           -------------------------------
                               Symmetry and Constraints
                           -------------------------------
 
                      Maximum deviation from symmetry = 0.300426E-14     ANG
 
                      Number of symmetry operations   =          24
                      Number of ionic constraints     =           3
                      Point group of crystal =    27: D6h, 6/mmm, 6/m 2/m 2/m
                      Space group of crystal =   194: P6_3/mmc, -P 6c 2c
 
             Set iprint > 1 for details on symmetry rotations/translations
 
                         Centre of mass is constrained
             Set iprint > 1 for details of linear ionic constraints
 
                         Number of cell constraints= 4
                         Cell constraints are:  1 1 3 0 0 0
 
                         External pressure/stress (GPa)
                          0.00000   0.00000   0.00000
                                    0.00000   0.00000
                                              0.00000
  
+---------------- MEMORY AND SCRATCH DISK ESTIMATES PER PROCESS --------------+
|                                                     Memory          Disk    |
| Baseline code, static data and system overhead      225.0 MB         0.0 MB |
| BLAS internal memory storage                          0.0 MB         0.0 MB |
| Model and support data                                9.0 MB         0.0 MB |
| Electronic energy minimisation requirements           1.5 MB         0.0 MB |
| Force calculation requirements                        0.4 MB         0.0 MB |
|                                               ----------------------------- |
| Approx. total storage required per process          235.6 MB         0.0 MB |
|                                                                             |
| Requirements will fluctuate during execution and may exceed these estimates |
+-----------------------------------------------------------------------------+
Calculating total energy with cut-off of  326.537 eV.
------------------------------------------------------------------------ <-- SCF
SCF loop      Energy                           Energy gain       Timer   <-- SCF
                                               per atom          (sec)   <-- SCF
------------------------------------------------------------------------ <-- SCF
Initial   2.94976133E+002                                          3.90  <-- SCF
      1  -6.11699202E+002                    2.26668834E+002       4.57  <-- SCF
      2  -6.31169992E+002                    4.86769756E+000       5.27  <-- SCF
      3  -6.31976541E+002                    2.01637325E-001       5.89  <-- SCF
      4  -6.32016299E+002                    9.93952046E-003       6.49  <-- SCF
      5  -6.32023098E+002                    1.69956073E-003       7.09  <-- SCF
      6  -6.32024852E+002                    4.38449815E-004       7.69  <-- SCF
      7  -6.32025312E+002                    1.15135565E-004       8.30  <-- SCF
      8  -6.32025438E+002                    3.13949721E-005       8.91  <-- SCF
      9  -6.32025476E+002                    9.49732494E-006       9.51  <-- SCF
     10  -6.32025487E+002                    2.85200308E-006      10.11  <-- SCF
     11  -6.32025491E+002                    1.00693113E-006      10.70  <-- SCF
------------------------------------------------------------------------ <-- SCF
 
Final energy =  -632.0254910795     eV
(energy not corrected for finite basis set)
 

Writing analysis data to graphite.castep_bin

Writing model to graphite.check
  
+---------------- MEMORY AND SCRATCH DISK ESTIMATES PER PROCESS --------------+
|                                                     Memory          Disk    |
| Baseline code, static data and system overhead      225.0 MB         0.0 MB |
| BLAS internal memory storage                          0.0 MB         0.0 MB |
| Model and support data                               10.7 MB         0.0 MB |
| Band structure calculation requirements               9.3 MB         0.0 MB |
| Force calculation requirements                        0.4 MB         0.0 MB |
|                                               ----------------------------- |
| Approx. total storage required per process          245.1 MB         0.0 MB |
|                                                                             |
| Requirements will fluctuate during execution and may exceed these estimates |
+-----------------------------------------------------------------------------+
  =====================================================================
  +  Fermi energy for spin-degenerate system:     4.71721 eV          +
  +                                                                   +
  +       B A N D   S T R U C T U R E   C A L C U L A T I O N         +
  +      (General k-point calculation - complex wavefunctions)        +
  +                                                                   +
  + Calculation re-parallelised over 16 processes.                    +
  + Data distributed by G-vector(4-way), k-point(4-way)               +
  +                                                                   +
  + ================================================================= +
  +                                                                   +
  +     Band Structure Calculation: Progress report on root process   +
  +                                                                   +
  +   There are  252 BS k-points. Root process contains   63 of them. +
  +                                                                   +
  +   Spin= 1 of  1, K-point=   1 of   63 completed, Time:     0.80s. +
  +   Spin= 1 of  1, K-point=   2 of   63 completed, Time:     0.80s. +
  +   Spin= 1 of  1, K-point=   3 of   63 completed, Time:     0.84s. +
  +   Spin= 1 of  1, K-point=   4 of   63 completed, Time:     0.79s. +
  +   Spin= 1 of  1, K-point=   5 of   63 completed, Time:     0.81s. +
  +   Spin= 1 of  1, K-point=   6 of   63 completed, Time:     0.80s. +
  +   Spin= 1 of  1, K-point=   7 of   63 completed, Time:     0.76s. +
  +   Spin= 1 of  1, K-point=   8 of   63 completed, Time:     0.81s. +
  +   Spin= 1 of  1, K-point=   9 of   63 completed, Time:     0.84s. +
  +   Spin= 1 of  1, K-point=  10 of   63 completed, Time:     0.78s. +
  +   Spin= 1 of  1, K-point=  11 of   63 completed, Time:     0.82s. +
  +   Spin= 1 of  1, K-point=  12 of   63 completed, Time:     0.79s. +
  +   Spin= 1 of  1, K-point=  13 of   63 completed, Time:     0.83s. +
  +   Spin= 1 of  1, K-point=  14 of   63 completed, Time:     0.77s. +
  +   Spin= 1 of  1, K-point=  15 of   63 completed, Time:     0.82s. +
  +   Spin= 1 of  1, K-point=  16 of   63 completed, Time:     0.80s. +
  +   Spin= 1 of  1, K-point=  17 of   63 completed, Time:     0.77s. +
  +   Spin= 1 of  1, K-point=  18 of   63 completed, Time:     0.77s. +
  +   Spin= 1 of  1, K-point=  19 of   63 completed, Time:     0.74s. +
  +   Spin= 1 of  1, K-point=  20 of   63 completed, Time:     0.77s. +
  +   Spin= 1 of  1, K-point=  21 of   63 completed, Time:     0.78s. +
  +   Spin= 1 of  1, K-point=  22 of   63 completed, Time:     0.72s. +
  +   Spin= 1 of  1, K-point=  23 of   63 completed, Time:     0.77s. +
  +   Spin= 1 of  1, K-point=  24 of   63 completed, Time:     0.75s. +
  +   Spin= 1 of  1, K-point=  25 of   63 completed, Time:     0.79s. +
  +   Spin= 1 of  1, K-point=  26 of   63 completed, Time:     0.74s. +
  +   Spin= 1 of  1, K-point=  27 of   63 completed, Time:     0.82s. +
  +   Spin= 1 of  1, K-point=  28 of   63 completed, Time:     0.78s. +
  +   Spin= 1 of  1, K-point=  29 of   63 completed, Time:     0.75s. +
  +   Spin= 1 of  1, K-point=  30 of   63 completed, Time:     0.75s. +
  +   Spin= 1 of  1, K-point=  31 of   63 completed, Time:     0.81s. +
  +   Spin= 1 of  1, K-point=  32 of   63 completed, Time:     0.80s. +
  +   Spin= 1 of  1, K-point=  33 of   63 completed, Time:     0.76s. +
  +   Spin= 1 of  1, K-point=  34 of   63 completed, Time:     0.75s. +
  +   Spin= 1 of  1, K-point=  35 of   63 completed, Time:     0.78s. +
  +   Spin= 1 of  1, K-point=  36 of   63 completed, Time:     0.81s. +
  +   Spin= 1 of  1, K-point=  37 of   63 completed, Time:     0.74s. +
  +   Spin= 1 of  1, K-point=  38 of   63 completed, Time:     0.77s. +
  +   Spin= 1 of  1, K-point=  39 of   63 completed, Time:     0.75s. +
  +   Spin= 1 of  1, K-point=  40 of   63 completed, Time:     0.80s. +
  +   Spin= 1 of  1, K-point=  41 of   63 completed, Time:     0.78s. +
  +   Spin= 1 of  1, K-point=  42 of   63 completed, Time:     0.75s. +
  +   Spin= 1 of  1, K-point=  43 of   63 completed, Time:     0.79s. +
  +   Spin= 1 of  1, K-point=  44 of   63 completed, Time:     0.82s. +
  +   Spin= 1 of  1, K-point=  45 of   63 completed, Time:     0.77s. +
  +   Spin= 1 of  1, K-point=  46 of   63 completed, Time:     0.79s. +
  +   Spin= 1 of  1, K-point=  47 of   63 completed, Time:     0.79s. +
  +   Spin= 1 of  1, K-point=  48 of   63 completed, Time:     0.75s. +
  +   Spin= 1 of  1, K-point=  49 of   63 completed, Time:     0.79s. +
  +   Spin= 1 of  1, K-point=  50 of   63 completed, Time:     0.77s. +
  +   Spin= 1 of  1, K-point=  51 of   63 completed, Time:     0.84s. +
  +   Spin= 1 of  1, K-point=  52 of   63 completed, Time:     0.77s. +
  +   Spin= 1 of  1, K-point=  53 of   63 completed, Time:     0.83s. +
  +   Spin= 1 of  1, K-point=  54 of   63 completed, Time:     0.78s. +
  +   Spin= 1 of  1, K-point=  55 of   63 completed, Time:     0.84s. +
  +   Spin= 1 of  1, K-point=  56 of   63 completed, Time:     0.77s. +
  +   Spin= 1 of  1, K-point=  57 of   63 completed, Time:     0.76s. +
  +   Spin= 1 of  1, K-point=  58 of   63 completed, Time:     0.76s. +
  +   Spin= 1 of  1, K-point=  59 of   63 completed, Time:     0.82s. +
  +   Spin= 1 of  1, K-point=  60 of   63 completed, Time:     0.83s. +
  +   Spin= 1 of  1, K-point=  61 of   63 completed, Time:     0.83s. +
  +   Spin= 1 of  1, K-point=  62 of   63 completed, Time:     0.83s. +
  +   Spin= 1 of  1, K-point=  63 of   63 completed, Time:     0.86s. +
  +   Finished BS calculation on root process (waiting for others).   +
  +                                                                   +
  + ================================================================= +
  +                       Electronic energies                         +
  +                       -------------------                         +
  +                                                                   +
  +   Band number   Energy in eV                                      +
  + ================================================================= +
  +                                                                   +
  + ----------------------------------------------------------------- +
  +  Spin=1 kpt=    1 ( -0.458333 -0.458333 -0.208333) kpt-group=  1  +
  + ----------------------------------------------------------------- +
  +                                                                   +
  +           1       -9.098637                                       +
  +           2       -9.013370                                       +
  +           3       -8.176542                                       +
  +           4       -8.114609                                       +
  +           5       -1.999595                                       +
  +           6       -1.952501                                       +
  +           7        2.451183                                       +
  +           8        2.983937                                       +
  +           9        6.413752                                       +
  +          10        6.900152                                       +
  +          11       12.981873                                       +
  +          12       13.299331                                       +
  +          13       16.177730                                       +
  +          14       16.266528                                       +
  +          15       18.100912                                       +
  +          16       18.969680                                       +
  +          17       22.515029                                       +
  +          18       23.830168                                       +
  +          19       24.447850                                       +
  +          20       25.358298                                       +
  +          21       26.649362                                       +
  +          22       27.600809                                       +
  +          23       28.111495                                       +
  + ----------------------------------------------------------------- +
  +  Spin=1 kpt=    2 ( -0.458333 -0.291667  0.041667) kpt-group=  1  +
  + ----------------------------------------------------------------- +
  +                                                                   +
  +           1       -9.555997                                       +
  +           2       -9.367448                                       +
  +           3       -6.179869                                       +
  +           4       -6.085095                                       +
  +           5       -4.528814                                       +
  +           6       -4.447147                                       +
  +           7        2.331076                                       +
  +           8        3.616471                                       +
  +           9        6.716019                                       +
  +          10        7.326207                                       +
  +          11       14.950891                                       +
  +          12       16.199678                                       +
  +          13       16.663015                                       +
  +          14       16.783328                                       +
  +          15       17.412942                                       +
  +          16       17.870358                                       +
  +          17       19.211235                                       +
  +          18       22.678287                                       +
  +          19       23.198986                                       +
  +          20       23.502904                                       +
  +          21       24.930057                                       +
  +          22       27.561812                                       +
  +          23       28.496324                                       +
  + ----------------------------------------------------------------- +
  +  Spin=1 kpt=    3 ( -0.458333 -0.208333  0.041667) kpt-group=  1  +
  + ----------------------------------------------------------------- +
  +                                                                   +
  +           1       -9.484207                                       +
  +           2       -9.300120                                       +
  +           3       -6.715461                                       +
  +           4       -6.588253                                       +
  +           5       -3.975400                                       +
  +           6       -3.861836                                       +
  +           7        2.362125                                       +
  +           8        3.550987                                       +
  +           9        6.624859                                       +
  +          10        7.252646                                       +
  +          11       15.051229                                       +
  +          12       15.767626                                       +
  +          13       16.486316                                       +
  +          14       16.513459                                       +
  +          15       16.985037                                       +
  +          16       17.605659                                       +
  +          17       20.540936                                       +
  +          18       22.691382                                       +
  +          19       23.385244                                       +
  +          20       24.174035                                       +
  +          21       25.267492                                       +
  +          22       27.460749                                       +
  +          23       28.209718                                       +
  + ----------------------------------------------------------------- +
  +  Spin=1 kpt=    4 ( -0.458333 -0.125000 -0.041667) kpt-group=  1  +
  + ----------------------------------------------------------------- +
  +                                                                   +
  +           1       -9.179121                                       +
  +           2       -9.026725                                       +
  +           3       -7.890779                                       +
  +           4       -7.765686                                       +
  +           5       -2.594489                                       +
  +           6       -2.512265                                       +
  +           7        2.437288                                       +
  +           8        3.215300                                       +
  +           9        6.443657                                       +
  +          10        7.023078                                       +
  +          11       13.735673                                       +
  +          12       14.180680                                       +
  +          13       15.564942                                       +
  +          14       16.598599                                       +
  +          15       17.702445                                       +
  +          16       18.203381                                       +
  +          17       22.742488                                       +
  +          18       23.452572                                       +
  +          19       23.640691                                       +
  +          20       25.622901                                       +
  +          21       26.812232                                       +
  +          22       27.213490                                       +
  +          23       27.949493                                       +
  + ----------------------------------------------------------------- +
  +  Spin=1 kpt=    5 ( -0.458333 -0.041667  0.291667) kpt-group=  1  +
  + ----------------------------------------------------------------- +
  +                                                                   +
  +           1       -9.365052                                       +
  +           2       -9.264888                                       +
  +           3       -8.079771                                       +
  +           4       -7.990470                                       +
  +           5       -1.591152                                       +
  +           6       -1.569731                                       +
  +           7        2.319724                                       +
  +           8        2.804594                                       +
  +           9        6.493564                                       +
  +          10        6.937934                                       +
  +          11       12.501785                                       +
  +          12       12.732660                                       +
  +          13       15.986752                                       +
  +          14       16.938677                                       +
  +          15       18.119652                                       +
  +          16       19.175651                                       +
  +          17       23.093771                                       +
  +          18       24.152568                                       +
  +          19       24.884448                                       +
  +          20       25.139165                                       +
  +          21       26.022443                                       +
  +          22       27.366427                                       +
  +          23       27.488470                                       +
  + ----------------------------------------------------------------- +
  +  Spin=1 kpt=    6 ( -0.458333  0.041667 -0.125000) kpt-group=  1  +
  + ----------------------------------------------------------------- +
  +                                                                   +
  +           1      -10.147752                                       +
  +           2       -9.963718                                       +
  +           3       -7.248636                                       +
  +           4       -7.096519                                       +
  +           5       -1.509112                                       +
  +           6       -1.475824                                       +
  +           7        1.557832                                       +
  +           8        2.652504                                       +
  +           9        6.928780                                       +
  +          10        7.797758                                       +
  +          11       12.486339                                       +
  +          12       12.831604                                       +
  +          13       14.429529                                       +
  +          14       17.560067                                       +
  +          15       18.149274                                       +
  +          16       19.964293                                       +
  +          17       23.386212                                       +
  +          18       23.995858                                       +
  +          19       24.370570                                       +
  +          20       25.154519                                       +
  +          21       25.478783                                       +
  +          22       26.840143                                       +
  +          23       27.717663                                       +
  + ----------------------------------------------------------------- +
  +  Spin=1 kpt=    7 ( -0.458333  0.208333 -0.125000) kpt-group=  1  +
  + ----------------------------------------------------------------- +
  +                                                                   +
  +           1      -10.923793                                       +
  +           2      -10.720516                                       +
  +           3       -4.959775                                       +
  +           4       -4.873462                                       +
  +           5       -3.363646                                       +
  +           6       -3.293526                                       +
  +           7        0.836816                                       +
  +           8        2.258154                                       +
  +           9        8.373258                                       +
  +          10        8.913969                                       +
  +          11       13.389414                                       +
  +          12       15.936775                                       +
  +          13       16.455203                                       +
  +          14       16.526376                                       +
  +          15       17.432474                                       +
  +          16       18.094327                                       +
  +          17       18.366955                                       +
  +          18       22.337658                                       +
  +          19       23.590075                                       +
  +          20       24.659543                                       +
  +          21       25.493081                                       +
  +          22       27.031033                                       +
  +          23       27.619436                                       +
  + ----------------------------------------------------------------- +
  +  Spin=1 kpt=    8 ( -0.458333  0.375000  0.291667) kpt-group=  1  +
  + ----------------------------------------------------------------- +
  +                                                                   +
  +           1      -10.418982                                       +
  +           2      -10.293992                                       +
  +           3       -6.659361                                       +
  +           4       -6.566542                                       +
  +           5       -1.830776                                       +
  +           6       -1.789953                                       +
  +           7        1.473257                                       +
  +           8        2.295611                                       +
  +           9        7.419485                                       +
  +          10        7.979578                                       +
  +          11       13.103983                                       +
  +          12       13.335304                                       +
  +          13       14.646992                                       +
  +          14       16.903017                                       +
  +          15       18.539814                                       +
  +          16       19.605240                                       +
  +          17       21.994971                                       +
  +          18       22.714243                                       +
  +          19       23.917790                                       +
  +          20       25.007141                                       +
  +          21       26.410777                                       +
  +          22       27.375309                                       +
  +          23       27.874003                                       +
  + ----------------------------------------------------------------- +
  +  Spin=1 kpt=    9 ( -0.458333  0.458333  0.208333) kpt-group=  1  +
  + ----------------------------------------------------------------- +
  +                                                                   +
  +           1       -9.774724                                       +
  +           2       -9.623181                                       +
  +           3       -7.723500                                       +
  +           4       -7.590333                                       +
  +           5       -1.417182                                       +
  +           6       -1.396399                                       +
  +           7        1.934603                                       +
  +           8        2.722294                                       +
  +           9        6.658494                                       +
  +          10        7.346523                                       +
  +          11       12.299410                                       +
  +          12       12.595508                                       +
  +          13       15.148803                                       +
  +          14       17.204406                                       +
  +          15       18.240615                                       +
  +          16       19.774897                                       +
  +          17       23.880120                                       +
  +          18       24.724445                                       +
  +          19       24.771766                                       +
  +          20       24.780678                                       +
  +          21       25.308185                                       +
  +          22       26.644538                                       +
  +          23       27.985711                                       +
  + ----------------------------------------------------------------- +
  +  Spin=1 kpt=   10 ( -0.375000 -0.291667  0.208333) kpt-group=  1  +
  + ----------------------------------------------------------------- +
  +                                                                   +
  +           1       -8.116333                                       +
  +           2       -8.008872                                       +
  +           3       -7.161435                                       +
  +           4       -7.095426                                       +
  +           5       -5.416929                                       +
  +           6       -5.361871                                       +
  +           7        3.941284                                       +
  +           8        4.578083                                       +
  +           9        5.477834                                       +
  +          10        5.909979                                       +
  +          11       15.284742                                       +
  +          12       15.374251                                       +
  +          13       17.141607                                       +
  +          14       17.696364                                       +
  +          15       17.868340                                       +
  +          16       18.945189                                       +
  +          17       20.130679                                       +
  +          18       21.175892                                       +
  +          19       22.876790                                       +
  +          20       23.633715                                       +
  +          21       24.659342                                       +
  +          22       25.387484                                       +
  +          23       27.650267                                       +
  + ----------------------------------------------------------------- +
  +  Spin=1 kpt=   11 ( -0.375000 -0.125000  0.375000) kpt-group=  1  +
  + ----------------------------------------------------------------- +
  +                                                                   +
  +           1       -9.873751                                       +
  +           2       -9.794818                                       +
  +           3       -7.006259                                       +
  +           4       -6.954276                                       +
  +           5       -2.476211                                       +
  +           6       -2.444581                                       +
  +           7        2.159980                                       +
  +           8        2.615197                                       +
  +           9        7.026509                                       +
  +          10        7.336666                                       +
  +          11       13.903777                                       +
  +          12       14.069353                                       +
  +          13       15.492678                                       +
  +          14       16.493232                                       +
  +          15       18.262298                                       +
  +          16       18.965687                                       +
  +          17       21.264798                                       +
  +          18       22.006628                                       +
  +          19       24.045879                                       +
  +          20       24.673995                                       +
  +          21       27.234701                                       +
  +          22       27.651313                                       +
  +          23       28.135433                                       +
  + ----------------------------------------------------------------- +
  +  Spin=1 kpt=   12 ( -0.375000  0.291667 -0.041667) kpt-group=  1  +
  + ----------------------------------------------------------------- +
  +                                                                   +
  +           1      -11.873539                                       +
  +           2      -11.637806                                       +
  +           3       -4.613932                                       +
  +           4       -4.481903                                       +
  +           5       -1.346448                                       +
  +           6       -1.306384                                       +
  +           7       -0.317502                                       +
  +           8        1.308851                                       +
  +           9        9.436952                                       +
  +          10       10.242981                                       +
  +          11       12.086432                                       +
  +          12       13.302462                                       +
  +          13       13.645646                                       +
  +          14       16.958457                                       +
  +          15       18.944142                                       +
  +          16       20.061727                                       +
  +          17       20.840944                                       +
  +          18       22.041113                                       +
  +          19       23.611681                                       +
  +          20       24.266167                                       +
  +          21       24.813022                                       +
  +          22       26.522955                                       +
  +          23       28.517498                                       +
  + ----------------------------------------------------------------- +
  +  Spin=1 kpt=   13 ( -0.375000  0.375000 -0.458333) kpt-group=  1  +
  + ----------------------------------------------------------------- +
  +                                                                   +
  +           1      -11.218305                                       +
  +           2      -11.190590                                       +
  +           3       -5.681210                                       +
  +           4       -5.671493                                       +
  +           5       -1.103227                                       +
  +           6       -1.094893                                       +
  +           7        0.903573                                       +
  +           8        1.104503                                       +
  +           9        8.658816                                       +
  +          10        8.788961                                       +
  +          11       12.584068                                       +
  +          12       12.626917                                       +
  +          13       14.731708                                       +
  +          14       15.318437                                       +
  +          15       19.983170                                       +
  +          16       20.241532                                       +
  +          17       22.726783                                       +
  +          18       22.750308                                       +
  +          19       23.580615                                       +
  +          20       23.735960                                       +
  +          21       26.601194                                       +
  +          22       27.008559                                       +
  +          23       27.388928                                       +
  + ----------------------------------------------------------------- +
  +  Spin=1 kpt=   14 ( -0.375000  0.375000 -0.125000) kpt-group=  1  +
  + ----------------------------------------------------------------- +
  +                                                                   +
  +           1      -11.306574                                       +
  +           2      -11.097271                                       +
  +           3       -5.735929                                       +
  +           4       -5.606372                                       +
  +           5       -1.102936                                       +
  +           6       -1.071021                                       +
  +           7        0.345025                                       +
  +           8        1.764391                                       +
  +           9        8.357437                                       +
  +          10        9.275624                                       +
  +          11       12.441692                                       +
  +          12       12.697076                                       +
  +          13       13.074435                                       +
  +          14       17.355522                                       +
  +          15       19.160897                                       +
  +          16       21.087943                                       +
  +          17       22.712588                                       +
  +          18       22.737172                                       +
  +          19       23.262586                                       +
  +          20       24.522573                                       +
  +          21       25.618451                                       +
  +          22       26.440536                                       +
  +          23       26.746437                                       +
  + ----------------------------------------------------------------- +
  +  Spin=1 kpt=   15 ( -0.291667 -0.291667  0.208333) kpt-group=  1  +
  + ----------------------------------------------------------------- +
  +                                                                   +
  +           1       -8.817647                                       +
  +           2       -8.686566                                       +
  +           3       -6.593671                                       +
  +           4       -6.531127                                       +
  +           5       -5.117104                                       +
  +           6       -5.068580                                       +
  +           7        3.226345                                       +
  +           8        4.108963                                       +
  +           9        6.036314                                       +
  +          10        6.532807                                       +
  +          11       15.271432                                       +
  +          12       15.538746                                       +
  +          13       16.839874                                       +
  +          14       17.705943                                       +
  +          15       17.716365                                       +
  +          16       18.913606                                       +
  +          17       19.132913                                       +
  +          18       21.520260                                       +
  +          19       22.975553                                       +
  +          20       23.708641                                       +
  +          21       24.905899                                       +
  +          22       26.387954                                       +
  +          23       27.793477                                       +
  + ----------------------------------------------------------------- +
  +  Spin=1 kpt=   16 ( -0.291667 -0.125000  0.125000) kpt-group=  1  +
  + ----------------------------------------------------------------- +
  +                                                                   +
  +           1      -11.389694                                       +
  +           2      -11.182530                                       +
  +           3       -5.065583                                       +
  +           4       -4.940057                                       +
  +           5       -2.073820                                       +
  +           6       -1.998578                                       +
  +           7        0.279706                                       +
  +           8        1.743898                                       +
  +           9        8.790714                                       +
  +          10        9.520067                                       +
  +          11       12.823693                                       +
  +          12       14.017793                                       +
  +          13       14.395185                                       +
  +          14       16.799989                                       +
  +          15       18.515871                                       +
  +          16       19.552953                                       +
  +          17       19.917452                                       +
  +          18       22.435991                                       +
  +          19       23.354511                                       +
  +          20       24.916049                                       +
  +          21       25.397497                                       +
  +          22       26.852411                                       +
  +          23       27.876520                                       +
  + ----------------------------------------------------------------- +
  +  Spin=1 kpt=   17 ( -0.208333  0.041667  0.208333) kpt-group=  1  +
  + ----------------------------------------------------------------- +
  +                                                                   +
  +           1      -13.720294                                       +
  +           2      -13.504646                                       +
  +           3       -2.385629                                       +
  +           4       -0.943685                                       +
  +           5       -0.878836                                       +
  +           6       -0.817506                                       +
  +           7        0.459741                                       +
  +           8        0.462191                                       +
  +           9       10.237491                                       +
  +          10       13.362612                                       +
  +          11       13.529028                                       +
  +          12       13.683682                                       +
  +          13       14.018608                                       +
  +          14       14.797667                                       +
  +          15       16.321386                                       +
  +          16       16.382896                                       +
  +          17       19.295678                                       +
  +          18       19.591423                                       +
  +          19       24.040070                                       +
  +          20       25.164000                                       +
  +          21       27.877028                                       +
  +          22       28.564669                                       +
  +          23       29.557215                                       +
  + ----------------------------------------------------------------- +
  +  Spin=1 kpt=   18 ( -0.208333  0.125000 -0.458333) kpt-group=  1  +
  + ----------------------------------------------------------------- +
  +                                                                   +
  +           1      -13.714325                                       +
  +           2      -13.678763                                       +
  +           3       -1.932493                                       +
  +           4       -1.698956                                       +
  +           5       -0.499659                                       +
  +           6       -0.494556                                       +
  +           7        0.410556                                       +
  +           8        0.412871                                       +
  +           9       11.778711                                       +
  +          10       12.471524                                       +
  +          11       13.804782                                       +
  +          12       13.818938                                       +
  +          13       14.150636                                       +
  +          14       14.194324                                       +
  +          15       15.634533                                       +
  +          16       15.641967                                       +
  +          17       19.419601                                       +
  +          18       19.453629                                       +
  +          19       25.197819                                       +
  +          20       25.284519                                       +
  +          21       28.778446                                       +
  +          22       28.982892                                       +
  +          23       29.113839                                       +
  + ----------------------------------------------------------------- +
  +  Spin=1 kpt=   19 ( -0.208333  0.125000 -0.125000) kpt-group=  1  +
  + ----------------------------------------------------------------- +
  +                                                                   +
  +           1      -13.820258                                       +
  +           2      -13.566976                                       +
  +           3       -2.589241                                       +
  +           4       -0.891615                                       +
  +           5       -0.530912                                       +
  +           6       -0.489208                                       +
  +           7        0.416587                                       +
  +           8        0.419682                                       +
  +           9        9.827143                                       +
  +          10       13.752852                                       +
  +          11       13.900779                                       +
  +          12       13.923807                                       +
  +          13       14.285435                                       +
  +          14       15.183148                                       +
  +          15       15.618776                                       +
  +          16       15.671927                                       +
  +          17       19.315873                                       +
  +          18       19.561305                                       +
  +          19       23.506955                                       +
  +          20       25.098157                                       +
  +          21       27.754076                                       +
  +          22       28.675121                                       +
  +          23       29.321351                                       +
  + ----------------------------------------------------------------- +
  +  Spin=1 kpt=   20 ( -0.208333  0.208333 -0.291667) kpt-group=  1  +
  + ----------------------------------------------------------------- +
  +                                                                   +
  +           1      -13.532535                                       +
  +           2      -13.367879                                       +
  +           3       -2.036124                                       +
  +           4       -1.356087                                       +
  +           5       -1.300882                                       +
  +           6       -0.950905                                       +
  +           7        0.344208                                       +
  +           8        0.355989                                       +
  +           9       10.867591                                       +
  +          10       13.114017                                       +
  +          11       13.272679                                       +
  +          12       13.289034                                       +
  +          13       13.583691                                       +
  +          14       14.370296                                       +
  +          15       17.098967                                       +
  +          16       17.155399                                       +
  +          17       19.451772                                       +
  +          18       19.765657                                       +
  +          19       24.525263                                       +
  +          20       25.002965                                       +
  +          21       27.916446                                       +
  +          22       28.210077                                       +
  +          23       29.195657                                       +
  + ----------------------------------------------------------------- +
  +  Spin=1 kpt=   21 ( -0.041667 -0.041667 -0.458333) kpt-group=  1  +
  + ----------------------------------------------------------------- +
  +                                                                   +
  +           1      -14.370613                                       +
  +           2      -14.334318                                       +
  +           3       -2.710836                                       +
  +           4       -2.469371                                       +
  +           5        1.444231                                       +
  +           6        1.447392                                       +
  +           7        1.657480                                       +
  +           8        1.664078                                       +
  +           9       11.043645                                       +
  +          10       11.768888                                       +
  +          11       13.423317                                       +
  +          12       13.442617                                       +
  +          13       13.848033                                       +
  +          14       13.856589                                       +
  +          15       16.043315                                       +
  +          16       16.095012                                       +
  +          17       17.991976                                       +
  +          18       18.018151                                       +
  +          19       26.226355                                       +
  +          20       27.014521                                       +
  +          21       27.553789                                       +
  +          22       27.664416                                       +
  +          23       31.585060                                       +
  + ----------------------------------------------------------------- +
  +  Spin=1 kpt=   22 ( -0.041667 -0.041667 -0.125000) kpt-group=  1  +
  + ----------------------------------------------------------------- +
  +                                                                   +
  +           1      -14.479685                                       +
  +           2      -14.217836                                       +
  +           3       -3.393353                                       +
  +           4       -1.655831                                       +
  +           5        1.453674                                       +
  +           6        1.457000                                       +
  +           7        1.650350                                       +
  +           8        1.666969                                       +
  +           9        9.017846                                       +
  +          10       13.386368                                       +
  +          11       13.429720                                       +
  +          12       13.827672                                       +
  +          13       13.845231                                       +
  +          14       14.550408                                       +
  +          15       15.942972                                       +
  +          16       16.244808                                       +
  +          17       17.911401                                       +
  +          18       18.094199                                       +
  +          19       22.956489                                       +
  +          20       27.361848                                       +
  +          21       27.747122                                       +
  +          22       28.837163                                       +
  +          23       30.909428                                       +
  + ----------------------------------------------------------------- +
  +  Spin=1 kpt=   23 ( -0.041667  0.041667 -0.291667) kpt-group=  1  +
  + ----------------------------------------------------------------- +
  +                                                                   +
  +           1      -14.520002                                       +
  +           2      -14.346386                                       +
  +           3       -3.231243                                       +
  +           4       -2.095231                                       +
  +           5        1.766828                                       +
  +           6        1.777286                                       +
  +           7        1.830479                                       +
  +           8        1.852430                                       +
  +           9        9.703229                                       +
  +          10       13.185097                                       +
  +          11       13.372949                                       +
  +          12       13.379198                                       +
  +          13       13.512317                                       +
  +          14       13.520829                                       +
  +          15       16.267466                                       +
  +          16       16.483262                                       +
  +          17       17.803095                                       +
  +          18       17.921012                                       +
  +          19       24.381207                                       +
  +          20       27.167411                                       +
  +          21       27.401279                                       +
  +          22       28.629888                                       +
  +          23       31.973357                                       +
  + ----------------------------------------------------------------- +
  +  Spin=1 kpt=   24 (  0.125000 -0.125000 -0.458333) kpt-group=  1  +
  + ----------------------------------------------------------------- +
  +                                                                   +
  +           1      -14.124079                                       +
  +           2      -14.088485                                       +
  +           3       -2.424867                                       +
  +           4       -2.179840                                       +
  +           5        0.563699                                       +
  +           6        0.569733                                       +
  +           7        1.213568                                       +
  +           8        1.230303                                       +
  +           9       11.318817                                       +
  +          10       12.026579                                       +
  +          11       13.426348                                       +
  +          12       13.437664                                       +
  +          13       14.852822                                       +
  +          14       14.879035                                       +
  +          15       15.256511                                       +
  +          16       15.298855                                       +
  +          17       18.433328                                       +
  +          18       18.464837                                       +
  +          19       26.037243                                       +
  +          20       26.599686                                       +
  +          21       28.280284                                       +
  +          22       28.391699                                       +
  +          23       30.308030                                       +
  + ----------------------------------------------------------------- +
  +  Spin=1 kpt=   25 (  0.125000 -0.125000 -0.125000) kpt-group=  1  +
  + ----------------------------------------------------------------- +
  +                                                                   +
  +           1      -14.231274                                       +
  +           2      -13.973573                                       +
  +           3       -3.091136                                       +
  +           4       -1.358089                                       +
  +           5        0.557533                                       +
  +           6        0.585113                                       +
  +           7        1.220563                                       +
  +           8        1.229312                                       +
  +           9        9.321377                                       +
  +          10       13.361837                                       +
  +          11       13.483135                                       +
  +          12       14.766868                                       +
  +          13       14.830150                                       +
  +          14       14.854089                                       +
  +          15       15.137361                                       +
  +          16       15.462864                                       +
  +          17       18.342627                                       +
  +          18       18.563409                                       +
  +          19       23.184601                                       +
  +          20       27.320742                                       +
  +          21       28.028774                                       +
  +          22       28.515188                                       +
  +          23       29.616331                                       +
  + ----------------------------------------------------------------- +
  +  Spin=1 kpt=   26 (  0.125000 -0.041667 -0.291667) kpt-group=  1  +
  + ----------------------------------------------------------------- +
  +                                                                   +
  +           1      -14.271963                                       +
  +           2      -14.101199                                       +
  +           3       -2.930720                                       +
  +           4       -1.800806                                       +
  +           5        0.862464                                       +
  +           6        0.874598                                       +
  +           7        1.328385                                       +
  +           8        1.345699                                       +
  +           9        9.998190                                       +
  +          10       13.323353                                       +
  +          11       13.536242                                       +
  +          12       13.610481                                       +
  +          13       14.445283                                       +
  +          14       14.459037                                       +
  +          15       15.431616                                       +
  +          16       15.658510                                       +
  +          17       18.248179                                       +
  +          18       18.378577                                       +
  +          19       24.509966                                       +
  +          20       27.447246                                       +
  +          21       27.904350                                       +
  +          22       28.314005                                       +
  +          23       30.153787                                       +
  + ----------------------------------------------------------------- +
  +  Spin=1 kpt=   27 (  0.125000  0.041667 -0.458333) kpt-group=  1  +
  + ----------------------------------------------------------------- +
  +                                                                   +
  +           1      -13.960186                                       +
  +           2      -13.924188                                       +
  +           3       -2.225682                                       +
  +           4       -1.983882                                       +
  +           5        0.082960                                       +
  +           6        0.089210                                       +
  +           7        0.915636                                       +
  +           8        0.918118                                       +
  +           9       11.502808                                       +
  +          10       12.205120                                       +
  +          11       13.544212                                       +
  +          12       13.555090                                       +
  +          13       14.777542                                       +
  +          14       14.824857                                       +
  +          15       15.313203                                       +
  +          16       15.321377                                       +
  +          17       18.783789                                       +
  +          18       18.818044                                       +
  +          19       25.791939                                       +
  +          20       26.153388                                       +
  +          21       28.655065                                       +
  +          22       28.764242                                       +
  +          23       29.513623                                       +
  + ----------------------------------------------------------------- +
  +  Spin=1 kpt=   28 (  0.125000  0.041667 -0.125000) kpt-group=  1  +
  + ----------------------------------------------------------------- +
  +                                                                   +
  +           1      -14.066407                                       +
  +           2      -13.810761                                       +
  +           3       -2.889285                                       +
  +           4       -1.169495                                       +
  +           5        0.071258                                       +
  +           6        0.108582                                       +
  +           7        0.917301                                       +
  +           8        0.919267                                       +
  +           9        9.523723                                       +
  +          10       13.461746                                       +
  +          11       13.603752                                       +
  +          12       14.593330                                       +
  +          13       14.886383                                       +
  +          14       15.064439                                       +
  +          15       15.270221                                       +
  +          16       15.326635                                       +
  +          17       18.687624                                       +
  +          18       18.926984                                       +
  +          19       23.322782                                       +
  +          20       26.385969                                       +
  +          21       28.352720                                       +
  +          22       28.841061                                       +
  +          23       28.930271                                       +
  + ----------------------------------------------------------------- +
  +  Spin=1 kpt=   29 (  0.125000  0.125000 -0.291667) kpt-group=  1  +
  + ----------------------------------------------------------------- +
  +                                                                   +
  +           1      -13.451226                                       +
  +           2      -13.287154                                       +
  +           3       -1.941686                                       +
  +           4       -1.214574                                       +
  +           5       -1.187202                                       +
  +           6       -0.850125                                       +
  +           7       -0.183281                                       +
  +           8       -0.176723                                       +
  +           9       10.978494                                       +
  +          10       13.137341                                       +
  +          11       13.398136                                       +
  +          12       14.012545                                       +
  +          13       14.296561                                       +
  +          14       14.470479                                       +
  +          15       15.946583                                       +
  +          16       15.996829                                       +
  +          17       20.218289                                       +
[...]
  +          12       14.960357                                       +
  +          13       15.295135                                       +
  +          14       15.802299                                       +
  +          15       18.295941                                       +
  +          16       18.780663                                       +
  +          17       19.742622                                       +
  +          18       20.660071                                       +
  +          19       23.995381                                       +
  +          20       25.189697                                       +
  +          21       26.420537                                       +
  +          22       27.233525                                       +
  +          23       27.952129                                       +
  + ----------------------------------------------------------------- +
  +  Spin=1 kpt=   56 (  0.458333 -0.291667  0.208333) kpt-group=  4  +
  + ----------------------------------------------------------------- +
  +                                                                   +
  +           1      -10.828171                                       +
  +           2      -10.656642                                       +
  +           3       -5.458188                                       +
  +           4       -5.352652                                       +
  +           5       -2.890343                                       +
  +           6       -2.817991                                       +
  +           7        1.000292                                       +
  +           8        2.188077                                       +
  +           9        8.167601                                       +
  +          10        8.727497                                       +
  +          11       13.716325                                       +
  +          12       14.926209                                       +
  +          13       15.345878                                       +
  +          14       16.452483                                       +
  +          15       18.101612                                       +
  +          16       18.717317                                       +
  +          17       19.574394                                       +
  +          18       21.752180                                       +
  +          19       23.446736                                       +
  +          20       25.618077                                       +
  +          21       25.829087                                       +
  +          22       27.053639                                       +
  +          23       27.534154                                       +
  + ----------------------------------------------------------------- +
  +  Spin=1 kpt=   57 (  0.458333 -0.208333  0.375000) kpt-group=  4  +
  + ----------------------------------------------------------------- +
  +                                                                   +
  +           1      -10.863079                                       +
  +           2      -10.778670                                       +
  +           3       -4.939535                                       +
  +           4       -4.896189                                       +
  +           5       -3.344271                                       +
  +           6       -3.323152                                       +
  +           7        1.204450                                       +
  +           8        1.781876                                       +
  +           9        8.520495                                       +
  +          10        8.732856                                       +
  +          11       14.260526                                       +
  +          12       15.374270                                       +
  +          13       16.291602                                       +
  +          14       16.388840                                       +
  +          15       17.539769                                       +
  +          16       17.884439                                       +
  +          17       19.054793                                       +
  +          18       20.317400                                       +
  +          19       24.366868                                       +
  +          20       25.447052                                       +
  +          21       26.019921                                       +
  +          22       27.116433                                       +
  +          23       27.883684                                       +
  + ----------------------------------------------------------------- +
  +  Spin=1 kpt=   58 (  0.458333 -0.041667 -0.041667) kpt-group=  4  +
  + ----------------------------------------------------------------- +
  +                                                                   +
  +           1      -10.157178                                       +
  +           2       -9.957734                                       +
  +           3       -7.254270                                       +
  +           4       -7.093935                                       +
  +           5       -1.511367                                       +
  +           6       -1.474817                                       +
  +           7        1.511074                                       +
  +           8        2.698752                                       +
  +           9        6.911830                                       +
  +          10        7.844236                                       +
  +          11       12.471840                                       +
  +          12       12.843886                                       +
  +          13       14.295272                                       +
  +          14       17.527276                                       +
  +          15       18.215462                                       +
  +          16       19.998634                                       +
  +          17       23.536615                                       +
  +          18       24.130338                                       +
  +          19       24.378638                                       +
  +          20       25.149557                                       +
  +          21       25.288379                                       +
  +          22       26.647505                                       +
  +          23       27.717309                                       +
  + ----------------------------------------------------------------- +
  +  Spin=1 kpt=   59 (  0.458333  0.125000 -0.458333) kpt-group=  4  +
  + ----------------------------------------------------------------- +
  +                                                                   +
  +           1       -9.109790                                       +
  +           2       -9.090169                                       +
  +           3       -7.835376                                       +
  +           4       -7.818315                                       +
  +           5       -2.550689                                       +
  +           6       -2.536475                                       +
  +           7        2.827731                                       +
  +           8        2.932300                                       +
  +           9        6.539896                                       +
  +          10        6.616898                                       +
  +          11       13.914915                                       +
  +          12       13.974371                                       +
  +          13       16.349880                                       +
  +          14       16.519488                                       +
  +          15       18.180225                                       +
  +          16       18.501250                                       +
  +          17       21.530263                                       +
  +          18       21.917516                                       +
  +          19       24.383435                                       +
  +          20       24.486689                                       +
  +          21       27.784285                                       +
  +          22       27.869439                                       +
  +          23       28.275301                                       +
  + ----------------------------------------------------------------- +
  +  Spin=1 kpt=   60 (  0.458333  0.208333 -0.291667) kpt-group=  4  +
  + ----------------------------------------------------------------- +
  +                                                                   +
  +           1       -9.449785                                       +
  +           2       -9.335012                                       +
  +           3       -6.691232                                       +
  +           4       -6.615851                                       +
  +           5       -3.954153                                       +
  +           6       -3.879748                                       +
  +           7        2.580313                                       +
  +           8        3.295656                                       +
  +           9        6.708094                                       +
  +          10        7.093680                                       +
  +          11       15.159825                                       +
  +          12       15.607100                                       +
  +          13       16.214375                                       +
  +          14       16.431566                                       +
  +          15       17.490633                                       +
  +          16       18.547394                                       +
  +          17       20.148571                                       +
  +          18       21.253188                                       +
  +          19       23.509065                                       +
  +          20       24.451407                                       +
  +          21       26.061622                                       +
  +          22       27.427298                                       +
  +          23       27.908526                                       +
  + ----------------------------------------------------------------- +
  +  Spin=1 kpt=   61 (  0.458333  0.291667 -0.375000) kpt-group=  4  +
  + ----------------------------------------------------------------- +
  +                                                                   +
  +           1       -9.499240                                       +
  +           2       -9.427087                                       +
  +           3       -6.144043                                       +
  +           4       -6.110802                                       +
  +           5       -4.508841                                       +
  +           6       -4.469838                                       +
  +           7        2.687225                                       +
  +           8        3.172296                                       +
  +           9        6.892456                                       +
  +          10        7.115769                                       +
  +          11       15.023226                                       +
  +          12       15.367100                                       +
  +          13       17.128552                                       +
  +          14       17.516444                                       +
  +          15       17.774096                                       +
  +          16       18.400149                                       +
  +          17       19.066445                                       +
  +          18       20.265908                                       +
  +          19       23.665828                                       +
  +          20       24.270449                                       +
  +          21       26.082314                                       +
  +          22       27.446860                                       +
  +          23       27.618852                                       +
  + ----------------------------------------------------------------- +
  +  Spin=1 kpt=   62 (  0.458333  0.375000  0.375000) kpt-group=  4  +
  + ----------------------------------------------------------------- +
  +                                                                   +
  +           1       -9.297649                                       +
  +           2       -9.228348                                       +
  +           3       -7.290629                                       +
  +           4       -7.241789                                       +
  +           5       -3.238465                                       +
  +           6       -3.199776                                       +
  +           7        2.727475                                       +
  +           8        3.113611                                       +
  +           9        6.613282                                       +
  +          10        6.851601                                       +
  +          11       14.826684                                       +
  +          12       15.008036                                       +
  +          13       15.768359                                       +
  +          14       16.245399                                       +
  +          15       17.929244                                       +
  +          16       18.769403                                       +
  +          17       20.699227                                       +
  +          18       21.588084                                       +
  +          19       23.904690                                       +
  +          20       24.362682                                       +
  +          21       27.164128                                       +
  +          22       27.733814                                       +
  +          23       28.153159                                       +
  + ----------------------------------------------------------------- +
  +  Spin=1 kpt=   63 (  0.458333  0.458333  0.375000) kpt-group=  4  +
  + ----------------------------------------------------------------- +
  +                                                                   +
  +           1       -9.075549                                       +
  +           2       -9.032005                                       +
  +           3       -8.164671                                       +
  +           4       -8.133654                                       +
  +           5       -1.987280                                       +
  +           6       -1.964168                                       +
  +           7        2.624066                                       +
  +           8        2.887790                                       +
  +           9        6.447202                                       +
  +          10        6.684409                                       +
  +          11       13.062147                                       +
  +          12       13.214999                                       +
  +          13       16.555704                                       +
  +          14       16.815544                                       +
  +          15       17.886671                                       +
  +          16       18.680549                                       +
  +          17       22.171280                                       +
  +          18       23.123047                                       +
  +          19       24.685779                                       +
  +          20       24.951297                                       +
  +          21       27.124145                                       +
  +          22       27.487983                                       +
  +          23       28.319773                                       +
  =====================================================================

Writing model to graphite.orbitals
  + Calculation re-parallelised over 16 processes.                    +
  + Data distributed by G-vector(4-way), k-point(4-way)               +
 
 ******************* Unconstrained Forces *******************
 *                                                          *
 *               Cartesian components (eV/A)                *
 * -------------------------------------------------------- *
 *                         x            y            z      *
 *                                                          *
 * C               1      0.00000      0.00000      0.00000 *
 * C               2      0.00000     -0.00000     -0.00000 *
 * C               3      0.00000     -0.00000      0.00000 *
 * C               4      0.00000      0.00000      0.00000 *
 *                                                          *
 ************************************************************
 
 ************** Constrained Symmetrised Forces **************
 *                                                          *
 *               Cartesian components (eV/A)                *
 * -------------------------------------------------------- *
 *                         x            y            z      *
 *                                                          *
 * C               1      0.00000      0.00000      0.00000 *
 * C               2      0.00000     -0.00000     -0.00000 *
 * C               3      0.00000     -0.00000      0.00000 *
 * C               4      0.00000      0.00000      0.00000 *
 *                                                          *
 ************************************************************
 
 Pseudo atomic calculation performed for C 2s2 2p2
 
 Converged in 16 iterations to a total energy of -147.8820 eV
 
Charge spilling parameter for spin component 1 = 0.87%
 
     Atomic Populations (Mulliken)
     -----------------------------
Species          Ion     s      p      d      f     Total  Charge (e)
=====================================================================
  C               1     1.03   2.97   0.00   0.00   4.00     0.00
  C               2     1.03   2.97   0.00   0.00   4.00     0.00
  C               3     1.03   2.97   0.00   0.00   4.00    -0.00
  C               4     1.03   2.97   0.00   0.00   4.00    -0.00
=====================================================================
 
                 Bond                   Population      Length (A)
======================================================================
               C 2 -- C 4                    3.10        1.42028
               C 1 -- C 3                    3.10        1.42028
======================================================================
 

Writing analysis data to graphite.castep_bin

Writing model to graphite.check
 
 A BibTeX formatted list of references used in this run has been written to 
 graphite.bib
 
Initialisation time =      3.23 s
Calculation time    =     60.33 s
Finalisation time   =      0.44 s
Total time          =     64.00 s
Peak Memory Use     = 355800 kB
  
Overall parallel efficiency rating: Poor (44%)                                  
  
Data was distributed by:-
G-vector (4-way); efficiency rating: Poor (46%)                                 
k-point (4-way); efficiency rating: Excellent (90%)                             
  
Parallel notes:
1) Calculation only took 63.6 s, so efficiency estimates may be inaccurate.     
