nqpoint: 9      
natom:   5      
reciprocal_lattice:
- [  -0.00000000,   0.18307446,   0.18307446 ] # a*
- [   0.18307446,   0.00000000,   0.18307446 ] # b*
- [   0.18307446,   0.18307446,   0.00000000 ] # c*
phonon:
- q-position: [    0.0000000,    0.0000000,    0.0000000 ]
  band:
  - # 1
    frequency:    0.0057132981
    eigenvector:
    - # atom 1
      - [ -0.05124264701787,  0.00000000000000 ]
      - [  0.42382542805034,  0.00000000000000 ]
      - [  0.01670063320514,  0.00000000000000 ]
    - # atom 2
      - [ -0.05124308473045,  0.00000000000000 ]
      - [  0.42382586576292,  0.00000000000000 ]
      - [  0.01671307963645,  0.00000000000000 ]
    - # atom 3
      - [ -0.05123198069513,  0.00000000000000 ]
      - [  0.42382408565437,  0.00000000000000 ]
      - [  0.01670197560113,  0.00000000000000 ]
    - # atom 4
      - [ -0.05123154298255,  0.00000000000000 ]
      - [  0.42382452336695,  0.00000000000000 ]
      - [  0.01671173724047,  0.00000000000000 ]
    - # atom 5
      - [ -0.06230111206047,  0.00000000000000 ]
      - [  0.51534253687848,  0.00000000000000 ]
      - [  0.02031440869373,  0.00000000000000 ]
  - # 2
    frequency:    0.0057132981
    eigenvector:
    - # atom 1
      - [  0.40173861426091, -0.00000000000000 ]
      - [  0.04308625436482,  0.00000000000000 ]
      - [  0.13886451809511,  0.00000000000000 ]
    - # atom 2
      - [  0.40173497619229,  0.00000000000000 ]
      - [  0.04308989243344,  0.00000000000000 ]
      - [  0.13885512177320,  0.00000000000000 ]
    - # atom 3
      - [  0.40173610521949,  0.00000000000000 ]
      - [  0.04309677971393,  0.00000000000000 ]
      - [  0.13885399274599,  0.00000000000000 ]
    - # atom 4
      - [  0.40173974328811,  0.00000000000000 ]
      - [  0.04310041778255,  0.00000000000000 ]
      - [  0.13886564712231,  0.00000000000000 ]
    - # atom 5
      - [  0.48848548809851,  0.00000000000000 ]
      - [  0.05239858528308,  0.00000000000000 ]
      - [  0.16884415968102,  0.00000000000000 ]
  - # 3
    frequency:    0.0057132981
    eigenvector:
    - # atom 1
      - [  0.13605979721469,  0.00000000000000 ]
      - [  0.03236622780814,  0.00000000000000 ]
      - [ -0.40369509031512,  0.00000000000000 ]
    - # atom 2
      - [  0.13607037389111,  0.00000000000000 ]
      - [  0.03235565113172,  0.00000000000000 ]
      - [ -0.40369780728435,  0.00000000000000 ]
    - # atom 3
      - [  0.13607122178075,  0.00000000000000 ]
      - [  0.03236979266701,  0.00000000000000 ]
      - [ -0.40369865517399,  0.00000000000000 ]
    - # atom 4
      - [  0.13606064510434,  0.00000000000000 ]
      - [  0.03235921599058,  0.00000000000000 ]
      - [ -0.40369424242548,  0.00000000000000 ]
    - # atom 5
      - [  0.16544646697372,  0.00000000000000 ]
      - [  0.03935088340658,  0.00000000000000 ]
      - [ -0.49086760803900,  0.00000000000000 ]
  - # 4
    frequency:    2.8172560050
    eigenvector:
    - # atom 1
      - [ -0.48004367083388, -0.00000000000000 ]
      - [ -0.12215587342832,  0.00000000000000 ]
      - [  0.35788779740556,  0.00000000000000 ]
    - # atom 2
      - [ -0.05231080082292,  0.00000000000000 ]
      - [  0.30557699658265,  0.00000000000000 ]
      - [ -0.35788779740556,  0.00000000000000 ]
    - # atom 3
      - [  0.48004367083388,  0.00000000000000 ]
      - [ -0.30557699658264,  0.00000000000000 ]
      - [  0.17446667425124,  0.00000000000000 ]
    - # atom 4
      - [  0.05231080082292,  0.00000000000000 ]
      - [  0.12215587342832,  0.00000000000000 ]
      - [ -0.17446667425124,  0.00000000000000 ]
    - # atom 5
      - [ -0.00000000000000,  0.00000000000000 ]
      - [  0.00000000000000,  0.00000000000000 ]
      - [  0.00000000000000,  0.00000000000000 ]
  - # 5
    frequency:    2.8172560050
    eigenvector:
    - # atom 1
      - [ -0.13878953144767,  0.00000000000000 ]
      - [ -0.48315212525163,  0.00000000000000 ]
      - [ -0.34436259380395,  0.00000000000000 ]
    - # atom 2
      - [  0.23519948525332,  0.00000000000000 ]
      - [ -0.10916310855064,  0.00000000000000 ]
      - [  0.34436259380395,  0.00000000000000 ]
    - # atom 3
      - [  0.13878953144767,  0.00000000000000 ]
      - [  0.10916310855063,  0.00000000000000 ]
      - [  0.24795263999830,  0.00000000000000 ]
    - # atom 4
      - [ -0.23519948525332,  0.00000000000000 ]
      - [  0.48315212525162,  0.00000000000000 ]
      - [ -0.24795263999830,  0.00000000000000 ]
    - # atom 5
      - [  0.00000000000000,  0.00000000000000 ]
      - [ -0.00000000000000,  0.00000000000000 ]
      - [ -0.00000000000000,  0.00000000000000 ]
  - # 6
    frequency:    2.8172560050
    eigenvector:
    - # atom 1
      - [ -0.01719127839543,  0.00000000000000 ]
      - [  0.04052118522213,  0.00000000000000 ]
      - [  0.05771246361756,  0.00000000000000 ]
    - # atom 2
      - [ -0.43811503312924,  0.00000000000000 ]
      - [ -0.38040256951169,  0.00000000000000 ]
      - [ -0.05771246361756,  0.00000000000000 ]
    - # atom 3
      - [  0.01719127839543,  0.00000000000000 ]
      - [  0.38040256951169,  0.00000000000000 ]
      - [  0.39759384790712,  0.00000000000000 ]
    - # atom 4
      - [  0.43811503312924,  0.00000000000000 ]
      - [ -0.04052118522213,  0.00000000000000 ]
      - [ -0.39759384790711,  0.00000000000000 ]
    - # atom 5
      - [  0.00000000000000,  0.00000000000000 ]
      - [ -0.00000000000000,  0.00000000000000 ]
      - [  0.00000000000000,  0.00000000000000 ]
  - # 7
    frequency:    7.2093673836
    eigenvector:
    - # atom 1
      - [ -0.40812445559318,  0.00000000000000 ]
      - [ -0.21276978543803,  0.00000000000000 ]
      - [  0.19535467015514,  0.00000000000000 ]
    - # atom 2
      - [  0.40812445559318,  0.00000000000000 ]
      - [  0.21276978543803,  0.00000000000000 ]
      - [  0.19535467015514,  0.00000000000000 ]
    - # atom 3
      - [ -0.40812445559318,  0.00000000000000 ]
      - [  0.21276978543803,  0.00000000000000 ]
      - [ -0.19535467015514,  0.00000000000000 ]
    - # atom 4
      - [  0.40812445559318,  0.00000000000000 ]
      - [ -0.21276978543803,  0.00000000000000 ]
      - [ -0.19535467015514,  0.00000000000000 ]
    - # atom 5
      - [ -0.00000000000000,  0.00000000000000 ]
      - [  0.00000000000000,  0.00000000000000 ]
      - [ -0.00000000000000,  0.00000000000000 ]
  - # 8
    frequency:    7.2093673836
    eigenvector:
    - # atom 1
      - [ -0.01005462149655,  0.00000000000000 ]
      - [  0.34841883570111,  0.00000000000000 ]
      - [  0.35847345719766,  0.00000000000000 ]
    - # atom 2
      - [  0.01005462149655,  0.00000000000000 ]
      - [ -0.34841883570111,  0.00000000000000 ]
      - [  0.35847345719766,  0.00000000000000 ]
    - # atom 3
      - [ -0.01005462149655,  0.00000000000000 ]
      - [ -0.34841883570111,  0.00000000000000 ]
      - [ -0.35847345719766,  0.00000000000000 ]
    - # atom 4
      - [  0.01005462149655,  0.00000000000000 ]
      - [  0.34841883570111,  0.00000000000000 ]
      - [ -0.35847345719766,  0.00000000000000 ]
    - # atom 5
      - [  0.00000000000000,  0.00000000000000 ]
      - [  0.00000000000000,  0.00000000000000 ]
      - [ -0.00000000000000,  0.00000000000000 ]
  - # 9
    frequency:   10.4678425962
    eigenvector:
    - # atom 1
      - [ -0.00907438672032,  0.00000000000000 ]
      - [ -0.27206198530598,  0.00000000000000 ]
      - [ -0.34378071462657,  0.00000000000000 ]
    - # atom 2
      - [ -0.38747683496648,  0.00000000000000 ]
      - [  0.10634046294018,  0.00000000000000 ]
      - [  0.14432739868958,  0.00000000000000 ]
    - # atom 3
      - [  0.04067626172830,  0.00000000000000 ]
      - [ -0.33201700192735,  0.00000000000000 ]
      - [ -0.28382569800520,  0.00000000000000 ]
    - # atom 4
      - [  0.41907870997446,  0.00000000000000 ]
      - [  0.04638544631881,  0.00000000000000 ]
      - [  0.08437238206821,  0.00000000000000 ]
    - # atom 5
      - [ -0.05197707236087,  0.00000000000000 ]
      - [  0.37118069083319,  0.00000000000000 ]
      - [  0.32805013729261,  0.00000000000000 ]
  - # 10
    frequency:   10.4678425962
    eigenvector:
    - # atom 1
      - [  0.43337887093720,  0.00000000000000 ]
      - [ -0.00221376312270,  0.00000000000000 ]
      - [ -0.01217290583239,  0.00000000000000 ]
    - # atom 2
      - [  0.04094036672051,  0.00000000000000 ]
      - [  0.39022474109399,  0.00000000000000 ]
      - [ -0.19467871822596,  0.00000000000000 ]
    - # atom 3
      - [ -0.33265623578941,  0.00000000000000 ]
      - [ -0.19330455323906,  0.00000000000000 ]
      - [  0.17891788428397,  0.00000000000000 ]
    - # atom 4
      - [  0.05978226842728,  0.00000000000000 ]
      - [  0.19913395097763,  0.00000000000000 ]
      - [ -0.38576950834232,  0.00000000000000 ]
    - # atom 5
      - [ -0.16566319859602,  0.00000000000000 ]
      - [ -0.32388378382189,  0.00000000000000 ]
      - [  0.34021847845827,  0.00000000000000 ]
  - # 11
    frequency:   10.4678425962
    eigenvector:
    - # atom 1
      - [  0.00877532117744,  0.00000000000000 ]
      - [  0.33757069175971,  0.00000000000000 ]
      - [ -0.26390005143114,  0.00000000000000 ]
    - # atom 2
      - [  0.19016357502969,  0.00000000000000 ]
      - [  0.15618243790746,  0.00000000000000 ]
      - [  0.35950854675281,  0.00000000000000 ]
    - # atom 3
      - [  0.27506702283835,  0.00000000000000 ]
      - [ -0.20093445861560,  0.00000000000000 ]
      - [  0.27460509894416,  0.00000000000000 ]
    - # atom 4
      - [  0.09367876898610,  0.00000000000000 ]
      - [ -0.38232271246784,  0.00000000000000 ]
      - [ -0.17899660362249,  0.00000000000000 ]
    - # atom 5
      - [ -0.46684869332155,  0.00000000000000 ]
      - [  0.07360572807956,  0.00000000000000 ]
      - [ -0.15725173517056,  0.00000000000000 ]
  - # 12
    frequency:   22.6912257631
    eigenvector:
    - # atom 1
      - [ -0.28867513459481,  0.00000000000000 ]
      - [  0.28867513459481,  0.00000000000000 ]
      - [ -0.28867513459481,  0.00000000000000 ]
    - # atom 2
      - [  0.28867513459481,  0.00000000000000 ]
      - [ -0.28867513459481,  0.00000000000000 ]
      - [ -0.28867513459481,  0.00000000000000 ]
    - # atom 3
      - [ -0.28867513459481,  0.00000000000000 ]
      - [ -0.28867513459481,  0.00000000000000 ]
      - [  0.28867513459481,  0.00000000000000 ]
    - # atom 4
      - [  0.28867513459481,  0.00000000000000 ]
      - [  0.28867513459481,  0.00000000000000 ]
      - [  0.28867513459481,  0.00000000000000 ]
    - # atom 5
      - [  0.00000000000000,  0.00000000000000 ]
      - [ -0.00000000000000,  0.00000000000000 ]
      - [  0.00000000000000,  0.00000000000000 ]
  - # 13
    frequency:   28.6885393251
    eigenvector:
    - # atom 1
      - [ -0.35005149165968,  0.00000000000000 ]
      - [  0.34982839115770,  0.00000000000000 ]
      - [ -0.34850829808741,  0.00000000000000 ]
    - # atom 2
      - [ -0.19839818478770,  0.00000000000000 ]
      - [  0.19817508428571,  0.00000000000000 ]
      - [  0.19321236282994,  0.00000000000000 ]
    - # atom 3
      - [  0.06317381721413,  0.00000000000000 ]
      - [  0.06967973224218,  0.00000000000000 ]
      - [ -0.06835963917189,  0.00000000000000 ]
    - # atom 4
      - [ -0.08847948965786,  0.00000000000000 ]
      - [ -0.08197357462981,  0.00000000000000 ]
      - [ -0.08693629608558,  0.00000000000000 ]
    - # atom 5
      - [  0.47187656939917,  0.00000000000000 ]
      - [ -0.44058643519231,  0.00000000000000 ]
      - [  0.25544167322383,  0.00000000000000 ]
  - # 14
    frequency:   28.6885393251
    eigenvector:
    - # atom 1
      - [ -0.04151066405562,  0.00000000000000 ]
      - [  0.04787375754584,  0.00000000000000 ]
      - [ -0.04710135180263,  0.00000000000000 ]
    - # atom 2
      - [  0.12231140952465,  0.00000000000000 ]
      - [ -0.11594831603443,  0.00000000000000 ]
      - [ -0.12065563719559,  0.00000000000000 ]
    - # atom 3
      - [  0.35044851764024,  0.00000000000000 ]
      - [  0.34956515105440,  0.00000000000000 ]
      - [ -0.34879274531118,  0.00000000000000 ]
    - # atom 4
      - [  0.18662644405997,  0.00000000000000 ]
      - [  0.18574307747413,  0.00000000000000 ]
      - [  0.18103575631297,  0.00000000000000 ]
    - # atom 5
      - [ -0.50816270310614,  0.00000000000000 ]
      - [ -0.38426939592346,  0.00000000000000 ]
      - [  0.27593849055771,  0.00000000000000 ]
  - # 15
    frequency:   28.6885393251
    eigenvector:
    - # atom 1
      - [ -0.07233415476657,  0.00000000000000 ]
      - [  0.06942342592929,  0.00000000000000 ]
      - [ -0.07625510351369,  0.00000000000000 ]
    - # atom 2
      - [  0.27417055159580,  0.00000000000000 ]
      - [ -0.27708128043308,  0.00000000000000 ]
      - [ -0.27857245386416,  0.00000000000000 ]
    - # atom 3
      - [  0.05182969507584,  0.00000000000000 ]
      - [  0.04939991975981,  0.00000000000000 ]
      - [ -0.05623159734420,  0.00000000000000 ]
    - # atom 4
      - [ -0.29467501128653,  0.00000000000000 ]
      - [ -0.29710478660256,  0.00000000000000 ]
      - [ -0.29859596003365,  0.00000000000000 ]
    - # atom 5
      - [  0.03372717697516,  0.00000000000000 ]
      - [  0.37450631039269,  0.00000000000000 ]
      - [  0.58364531442660,  0.00000000000000 ]

- q-position: [    0.0000000,    0.0000000,    0.5000000 ]
  band:
  - # 1
    frequency:    1.0504851311
    eigenvector:
    - # atom 1
      - [  0.26931753518112,  0.00000000000000 ]
      - [ -0.26931753518106,  0.00000000000000 ]
      - [  0.06168293845077,  0.00000000000000 ]
    - # atom 2
      - [  0.26931753518109,  0.00000000000000 ]
      - [ -0.26931753518108,  0.00000000000000 ]
      - [ -0.06168293845076,  0.00000000000001 ]
    - # atom 3
      - [  0.16583751560633, -0.28714371938756 ]
      - [ -0.16583751560637,  0.28714371938759 ]
      - [ -0.00000000000002,  0.00000000000003 ]
    - # atom 4
      - [  0.16583751560636,  0.28714371938757 ]
      - [ -0.16583751560637, -0.28714371938761 ]
      - [  0.00000000000001,  0.00000000000004 ]
    - # atom 5
      - [  0.36224874224710, -0.00000000000001 ]
      - [ -0.36224874224710, -0.00000000000000 ]
      - [  0.00000000000000,  0.00000000000001 ]
  - # 2
    frequency:    1.4917804433
    eigenvector:
    - # atom 1
      - [  0.13487386702002,  0.00000000000000 ]
      - [  0.13487386702007, -0.00000000000001 ]
      - [ -0.00000000000002, -0.00000000000002 ]
    - # atom 2
      - [  0.13487386702004, -0.00000000000001 ]
      - [  0.13487386702008, -0.00000000000002 ]
      - [ -0.00000000000001, -0.00000000000002 ]
    - # atom 3
      - [ -0.16687727090911,  0.28894403099864 ]
      - [ -0.16687727090910,  0.28894403099860 ]
      - [ -0.23907750466053,  0.41395702087750 ]
    - # atom 4
      - [ -0.16687727090917, -0.28894403099862 ]
      - [ -0.16687727090912, -0.28894403099858 ]
      - [  0.23907750466058,  0.41395702087744 ]
    - # atom 5
      - [ -0.11147312873535,  0.00000000000002 ]
      - [ -0.11147312873530, -0.00000000000000 ]
      - [ -0.00000000000002, -0.00000000000002 ]
  - # 3
    frequency:    1.6085912214
    eigenvector:
    - # atom 1
      - [  0.00383898013033,  0.00000000000000 ]
      - [ -0.00383898013036,  0.00000000000002 ]
      - [ -0.44232743300545,  0.00000000000064 ]
    - # atom 2
      - [ -0.00383898013035,  0.00000000000002 ]
      - [  0.00383898013033,  0.00000000000001 ]
      - [ -0.44232743300546,  0.00000000000065 ]
    - # atom 3
      - [  0.00405382981408, -0.00701911003871 ]
      - [  0.00405382981408, -0.00701911003869 ]
      - [ -0.20479667728059,  0.35460058249030 ]
    - # atom 4
      - [ -0.00405382981408, -0.00701911003868 ]
      - [ -0.00405382981409, -0.00701911003867 ]
      - [ -0.20479667728165, -0.35460058248974 ]
    - # atom 5
      - [ -0.00000000000000, -0.00000000000000 ]
      - [ -0.00000000000000,  0.00000000000000 ]
      - [ -0.52249844298807,  0.00000000000076 ]
  - # 4
    frequency:    1.9922400778
    eigenvector:
    - # atom 1
      - [  0.35716038648081,  0.00000000000000 ]
      - [  0.35716038648084,  0.00000000000000 ]
      - [  0.00000000000000,  0.00000000000001 ]
    - # atom 2
      - [ -0.35716038647974,  0.00000000000017 ]
      - [ -0.35716038647971,  0.00000000000017 ]
      - [ -0.00000000000001,  0.00000000000000 ]
    - # atom 3
      - [ -0.17499814342558,  0.30300512887845 ]
      - [  0.17499814342597, -0.30300512887895 ]
      - [ -0.00000000000018,  0.00000000000022 ]
    - # atom 4
      - [  0.17499814342603,  0.30300512887889 ]
      - [ -0.17499814342580, -0.30300512887831 ]
      - [  0.00000000000009,  0.00000000000026 ]
    - # atom 5
      - [  0.00000000000053,  0.00000000000008 ]
      - [  0.00000000000055,  0.00000000000008 ]
      - [ -0.00000000000001,  0.00000000000000 ]
  - # 5
    frequency:    1.9992918648
    eigenvector:
    - # atom 1
      - [  0.35901430654965,  0.00000000000000 ]
      - [  0.35901430654964,  0.00000000000001 ]
      - [ -0.00000000000002, -0.00000000000000 ]
    - # atom 2
      - [  0.35901430655074, -0.00000000000017 ]
      - [  0.35901430655073, -0.00000000000016 ]
      - [  0.00000000000001, -0.00000000000001 ]
    - # atom 3
      - [  0.10397277938197, -0.18002639799376 ]
      - [  0.10397277938159, -0.18002639799278 ]
      - [ -0.08533522903187,  0.14775592223160 ]
    - # atom 4
      - [  0.10397277938152,  0.18002639799279 ]
      - [  0.10397277938221,  0.18002639799366 ]
      - [  0.08533522903194,  0.14775592223155 ]
    - # atom 5
      - [  0.35589865954023, -0.00000000000008 ]
      - [  0.35589865954024, -0.00000000000008 ]
      - [ -0.00000000000001, -0.00000000000001 ]
  - # 6
    frequency:    2.4734618334
    eigenvector:
    - # atom 1
      - [ -0.28619591876358,  0.00000000000000 ]
      - [  0.28619591876358,  0.00000000000001 ]
      - [  0.49130598629877,  0.00000000000001 ]
    - # atom 2
      - [ -0.28619591876356, -0.00000000000000 ]
      - [  0.28619591876360,  0.00000000000000 ]
      - [ -0.49130598629877, -0.00000000000000 ]
    - # atom 3
      - [  0.10737278589522, -0.18591342851605 ]
      - [ -0.10737278589521,  0.18591342851603 ]
      - [ -0.00000000000000,  0.00000000000000 ]
    - # atom 4
      - [  0.10737278589522,  0.18591342851604 ]
      - [ -0.10737278589521, -0.18591342851602 ]
      - [ -0.00000000000000,  0.00000000000001 ]
    - # atom 5
      - [ -0.05115450992982, -0.00000000000000 ]
      - [  0.05115450992984,  0.00000000000000 ]
      - [  0.00000000000000,  0.00000000000000 ]
  - # 7
    frequency:    7.4221088349
    eigenvector:
    - # atom 1
      - [  0.34990921441034,  0.00000000000000 ]
      - [  0.34990921441034,  0.00000000000000 ]
      - [ -0.00000000000000,  0.00000000000000 ]
    - # atom 2
      - [ -0.34990921441034,  0.00000000000000 ]
      - [ -0.34990921441034, -0.00000000000000 ]
      - [ -0.00000000000000,  0.00000000000000 ]
    - # atom 3
      - [  0.17862463166234, -0.30928430712571 ]
      - [ -0.17862463166234,  0.30928430712571 ]
      - [  0.00000000000000, -0.00000000000000 ]
    - # atom 4
      - [ -0.17862463166234, -0.30928430712571 ]
      - [  0.17862463166234,  0.30928430712571 ]
      - [  0.00000000000000,  0.00000000000000 ]
    - # atom 5
      - [ -0.00000000000000, -0.00000000000000 ]
      - [  0.00000000000000, -0.00000000000000 ]
      - [  0.00000000000000,  0.00000000000000 ]
  - # 8
    frequency:    7.4986107065
    eigenvector:
    - # atom 1
      - [  0.21176871223031,  0.00000000000000 ]
      - [ -0.21176871223032, -0.00000000000000 ]
      - [ -0.39507408615081, -0.00000000000000 ]
    - # atom 2
      - [ -0.21176871223031,  0.00000000000000 ]
      - [  0.21176871223032,  0.00000000000000 ]
      - [ -0.39507408615082, -0.00000000000000 ]
    - # atom 3
      - [  0.09801063223449, -0.16970308181740 ]
      - [  0.09801063223449, -0.16970308181740 ]
      - [  0.21042559552515, -0.36434692073452 ]
    - # atom 4
      - [ -0.09801063223449, -0.16970308181740 ]
      - [ -0.09801063223449, -0.16970308181740 ]
      - [  0.21042559552515,  0.36434692073452 ]
    - # atom 5
      - [  0.00000000000000,  0.00000000000000 ]
      - [ -0.00000000000000,  0.00000000000000 ]
      - [  0.02780077600459, -0.00000000000000 ]
  - # 9
    frequency:   10.5380506381
    eigenvector:
    - # atom 1
      - [ -0.28266920608829,  0.00000000000000 ]
      - [  0.28266920608828,  0.00000000000000 ]
      - [  0.14441928310102,  0.00000000000004 ]
    - # atom 2
      - [  0.28266920608828,  0.00000000000002 ]
      - [ -0.28266920608829, -0.00000000000002 ]
      - [  0.14441928310104, -0.00000000000003 ]
    - # atom 3
      - [  0.14937720664450, -0.25864308537671 ]
      - [  0.14937720664454, -0.25864308537667 ]
      - [  0.07893499097726, -0.13667406205503 ]
    - # atom 4
      - [ -0.14937720664448, -0.25864308537670 ]
      - [ -0.14937720664453, -0.25864308537669 ]
      - [  0.07893499097726,  0.13667406205504 ]
    - # atom 5
      - [ -0.00000000000000,  0.00000000000003 ]
      - [  0.00000000000001, -0.00000000000003 ]
      - [ -0.48168285734917, -0.00000000000001 ]
  - # 10
    frequency:   10.5483704288
    eigenvector:
    - # atom 1
      - [ -0.09334040630450,  0.00000000000000 ]
      - [  0.09334040630450,  0.00000000000000 ]
      - [ -0.41327052949414, -0.00000000000012 ]
    - # atom 2
      - [ -0.09334040630451, -0.00000000000005 ]
      - [  0.09334040630451,  0.00000000000005 ]
      - [  0.41327052949414,  0.00000000000009 ]
    - # atom 3
      - [  0.15329218114256, -0.26542177073355 ]
      - [ -0.15329218114261,  0.26542177073354 ]
      - [ -0.00000000000001, -0.00000000000000 ]
    - # atom 4
      - [  0.15329218114243,  0.26542177073365 ]
      - [ -0.15329218114247, -0.26542177073361 ]
      - [  0.00000000000001, -0.00000000000001 ]
    - # atom 5
      - [ -0.35197753933438, -0.00000000000009 ]
      - [  0.35197753933438,  0.00000000000009 ]
      - [  0.00000000000001,  0.00000000000004 ]
  - # 11
    frequency:   10.9640561724
    eigenvector:
    - # atom 1
      - [  0.31974487440349,  0.00000000000000 ]
      - [  0.31974487440350,  0.00000000000000 ]
      - [ -0.00000000000000,  0.00000000000000 ]
    - # atom 2
      - [  0.31974487440350,  0.00000000000000 ]
      - [  0.31974487440349, -0.00000000000000 ]
      - [  0.00000000000001,  0.00000000000000 ]
    - # atom 3
      - [ -0.05803710156514,  0.10048986289354 ]
      - [ -0.05803710156514,  0.10048986289355 ]
      - [  0.20748177892363, -0.35924977220895 ]
    - # atom 4
      - [ -0.05803710156514, -0.10048986289355 ]
      - [ -0.05803710156514, -0.10048986289355 ]
      - [ -0.20748177892362, -0.35924977220895 ]
    - # atom 5
      - [ -0.31061923276416, -0.00000000000000 ]
      - [ -0.31061923276415, -0.00000000000000 ]
      - [ -0.00000000000001, -0.00000000000000 ]
  - # 12
    frequency:   22.7583225504
    eigenvector:
    - # atom 1
      - [ -0.29582418404695,  0.00000000000000 ]
      - [  0.29582418404695, -0.00000000000000 ]
      - [ -0.28911861161387,  0.00000000000000 ]
    - # atom 2
      - [  0.29582418404695,  0.00000000000000 ]
      - [ -0.29582418404695, -0.00000000000000 ]
      - [ -0.28911861161387, -0.00000000000000 ]
    - # atom 3
      - [ -0.14072574324148,  0.24366328197931 ]
      - [ -0.14072574324148,  0.24366328197931 ]
      - [  0.14405397728533, -0.24942604017580 ]
    - # atom 4
      - [  0.14072574324148,  0.24366328197931 ]
      - [  0.14072574324148,  0.24366328197931 ]
      - [  0.14405397728533,  0.24942604017580 ]
    - # atom 5
      - [ -0.00000000000000, -0.00000000000000 ]
      - [  0.00000000000000, -0.00000000000000 ]
      - [  0.01188067365807,  0.00000000000000 ]
  - # 13
    frequency:   28.7585489969
    eigenvector:
    - # atom 1
      - [  0.29469904967265,  0.00000000000000 ]
      - [ -0.29469904967265, -0.00000000000000 ]
      - [  0.28986395495595, -0.00000000000000 ]
    - # atom 2
      - [  0.29469904967265,  0.00000000000000 ]
      - [ -0.29469904967265,  0.00000000000000 ]
      - [ -0.28986395495595, -0.00000000000000 ]
    - # atom 3
      - [  0.00127267677786, -0.00220360961291 ]
      - [ -0.00127267677786,  0.00220360961291 ]
      - [ -0.00000000000000,  0.00000000000000 ]
    - # atom 4
      - [  0.00127267677786,  0.00220360961291 ]
      - [ -0.00127267677786, -0.00220360961292 ]
      - [ -0.00000000000000, -0.00000000000000 ]
    - # atom 5
      - [ -0.49221019560585,  0.00000000000000 ]
      - [  0.49221019560585, -0.00000000000000 ]
      - [  0.00000000000000,  0.00000000000000 ]
  - # 14
    frequency:   29.1682798352
    eigenvector:
    - # atom 1
      - [  0.19423039621606, -0.00000000000000 ]
      - [ -0.19423039621606,  0.00000000000000 ]
      - [  0.20932369084735,  0.00000000000000 ]
    - # atom 2
      - [ -0.19423039621605, -0.00000000000000 ]
      - [  0.19423039621605,  0.00000000000000 ]
      - [  0.20932369084734,  0.00000000000000 ]
    - # atom 3
      - [ -0.10388121579982,  0.17986785782579 ]
      - [ -0.10388121579982,  0.17986785782579 ]
      - [  0.10890053731824, -0.18855869381867 ]
    - # atom 4
      - [  0.10388121579982,  0.17986785782579 ]
      - [  0.10388121579982,  0.17986785782579 ]
      - [  0.10890053731825,  0.18855869381867 ]
    - # atom 5
      - [ -0.00000000000000, -0.00000000000000 ]
      - [  0.00000000000000, -0.00000000000000 ]
      - [ -0.70289612920968,  0.00000000000000 ]
  - # 15
    frequency:   30.3141230521
    eigenvector:
    - # atom 1
      - [ -0.02609565059613,  0.00000000000000 ]
      - [ -0.02609565059613,  0.00000000000000 ]
      - [ -0.00000000000000,  0.00000000000000 ]
    - # atom 2
      - [ -0.02609565059613, -0.00000000000000 ]
      - [ -0.02609565059613, -0.00000000000000 ]
      - [  0.00000000000000,  0.00000000000000 ]
    - # atom 3
      - [ -0.14319372082064,  0.24793652653953 ]
      - [ -0.14319372082064,  0.24793652653953 ]
      - [  0.13256460818805, -0.22953247047325 ]
    - # atom 4
      - [ -0.14319372082064, -0.24793652653953 ]
      - [ -0.14319372082064, -0.24793652653953 ]
      - [ -0.13256460818805, -0.22953247047325 ]
    - # atom 5
      - [  0.51422327635418, -0.00000000000000 ]
      - [  0.51422327635418, -0.00000000000000 ]
      - [ -0.00000000000000,  0.00000000000000 ]

- q-position: [   -0.2500000,    0.5000000,    0.5000000 ]
  band:
  - # 1
    frequency:    1.1501736166
    eigenvector:
    - # atom 1
      - [  0.50002994448264,  0.00000000000000 ]
      - [  0.20292524440403, -0.01873145817667 ]
      - [ -0.20292524440402, -0.01873145817667 ]
    - # atom 2
      - [ -0.00000000000000,  0.00000000000001 ]
      - [  0.03454309799034, -0.28366776554177 ]
      - [ -0.03454309799033,  0.28366776554178 ]
    - # atom 3
      - [ -0.50002994448264, -0.00000000000000 ]
      - [  0.20292524440402,  0.01873145817665 ]
      - [ -0.20292524440403,  0.01873145817665 ]
    - # atom 4
      - [  0.00000000000001, -0.00000000000000 ]
      - [  0.22829319994295, -0.17188031209549 ]
      - [ -0.22829319994295,  0.17188031209551 ]
    - # atom 5
      - [  0.00000000000000, -0.00000000000000 ]
      - [ -0.02996474210583, -0.05188323924959 ]
      - [  0.02996474210585,  0.05188323924959 ]
  - # 2
    frequency:    1.3883778558
    eigenvector:
    - # atom 1
      - [  0.01248852551962,  0.00000000000000 ]
      - [  0.00131998623798,  0.17608067622032 ]
      - [ -0.00131998623807,  0.17608067622033 ]
    - # atom 2
      - [ -0.17735540851658,  0.00644050350337 ]
      - [ -0.37721958864468,  0.00473202621912 ]
      - [ -0.37721958864472,  0.00473202621910 ]
    - # atom 3
      - [  0.01248852551961,  0.00000000000002 ]
      - [ -0.00131998623809,  0.17608067622036 ]
      - [  0.00131998623796,  0.17608067622037 ]
    - # atom 4
      - [  0.08319017251580,  0.15676675735705 ]
      - [ -0.18470081333503, -0.32894166607898 ]
      - [ -0.18470081333503, -0.32894166607892 ]
    - # atom 5
      - [ -0.00011983495721, -0.00020749138214 ]
      - [ -0.30209404259832,  0.17447195296767 ]
      - [ -0.30209404259832,  0.17447195296768 ]
  - # 3
    frequency:    1.5091981011
    eigenvector:
    - # atom 1
      - [  0.02993925689183,  0.00000000000000 ]
      - [  0.00356518024830,  0.34983134130958 ]
      - [ -0.00356518024874,  0.34983134130959 ]
    - # atom 2
      - [  0.00000000000006,  0.00000000000004 ]
      - [ -0.35465197197002, -0.03597111959940 ]
      - [  0.35465197197000,  0.03597111959942 ]
    - # atom 3
      - [ -0.02993925689174, -0.00000000000003 ]
      - [  0.00356518024878, -0.34983134130949 ]
      - [ -0.00356518024827, -0.34983134130948 ]
    - # atom 4
      - [ -0.00000000000007,  0.00000000000000 ]
      - [  0.20864403119318,  0.28903219702120 ]
      - [ -0.20864403119320, -0.28903219702121 ]
    - # atom 5
      - [  0.00000000000004,  0.00000000000004 ]
      - [ -0.00652848820048, -0.01130392225789 ]
      - [  0.00652848820043,  0.01130392225795 ]
  - # 4
    frequency:    1.5893883098
    eigenvector:
    - # atom 1
      - [ -0.26915976684732,  0.00000000000000 ]
      - [  0.01120461459057, -0.24645972039169 ]
      - [ -0.01120461459061, -0.24645972039169 ]
    - # atom 2
      - [ -0.34953620124722, -0.30806824452887 ]
      - [ -0.08826597250752, -0.00843483395873 ]
      - [ -0.08826597250741, -0.00843483395869 ]
    - # atom 3
      - [ -0.26915976684732,  0.00000000000000 ]
      - [ -0.01120461459058, -0.24645972039180 ]
      - [  0.01120461459061, -0.24645972039180 ]
    - # atom 4
      - [  0.44164839629461,  0.14841931585830 ]
      - [ -0.05147926503613, -0.07219358418814 ]
      - [ -0.05147926503616, -0.07219358418826 ]
    - # atom 5
      - [ -0.17625788873902, -0.30518634796761 ]
      - [  0.09044433882262, -0.05223539098467 ]
      - [  0.09044433882261, -0.05223539098466 ]
  - # 5
    frequency:    2.1381586234
    eigenvector:
    - # atom 1
      - [  0.31915214963639,  0.00000000000000 ]