  10  120
1 1
     5.505750999999997     0.000000000000000    -0.000000000000000
    -0.000000000000000    15.720151000000000     9.470406000000001
    -0.000000000000000     9.469783499999998    14.078943000000001
1 2
    -0.142597000000000    -0.000000000000000    -0.000000000000000
     0.000000000000000     0.573017000000000     0.485156000000000
     0.000000000000000     0.485193500000000     0.546553500000000
1 3
    -0.142628000000000     0.000000000000000    -0.000000000000000
    -0.000000000000000     0.573017000000000     0.485156000000000
    -0.000000000000000     0.485193500000000     0.546553500000000
1 4
     0.021810000000000     0.000000000000000    -0.000000000000000
    -0.000000000000000    -0.858628500000000    -0.264128000000000
    -0.000000000000000    -0.264017500000000     0.031660000000000
1 5
    -0.014603000000000     0.000000000000000    -0.000000000000000
     0.000000000000000    -0.163175500000000    -0.057490500000000
    -0.000000000000000    -0.057448500000000     0.027032000000000
1 6
    -0.015000000000000     0.000000000000000    -0.000000000000000
    -0.000000000000000    -0.163175500000000    -0.057490500000000
     0.000000000000000    -0.057448500000000     0.027032000000000
1 7
     0.022981000000000     0.000000000000000    -0.000000000000000
    -0.000000000000000     0.090282000000000    -0.175263000000000
    -0.000000000000000    -0.175378500000000    -0.655980000000000
1 8
    -0.014331000000000     0.000000000000000    -0.000000000000000
    -0.000000000000000     0.035973000000000    -0.046078000000000
     0.000000000000000    -0.046110500000000    -0.137573500000000
1 9
    -0.014480000000000     0.000000000000000    -0.000000000000000
     0.000000000000000     0.035973000000000    -0.046078000000000
    -0.000000000000000    -0.046110500000000    -0.137573500000000
1 10
     0.008319000000000     0.000000000000000    -0.000000000000000
    -0.000000000000000    -0.595553500000000    -0.557861000000000
    -0.000000000000000    -0.557859000000000    -0.547446000000000
1 11
    -0.015064000000000     0.000000000000000    -0.000000000000000
    -0.000000000000000    -0.168726000000000    -0.152469500000000
     0.000000000000000    -0.152432000000000    -0.160796500000000
1 12
    -0.015445000000000     0.000000000000000    -0.000000000000000
     0.000000000000000    -0.168726000000000    -0.152469500000000
    -0.000000000000000    -0.152432000000000    -0.160796500000000
1 13
     0.243443000000000    -0.000000000000000    -0.000000000000000
    -0.000000000000000    -2.676630500000000     0.849295000000000
    -0.000000000000000    -0.849332000000000     0.875439500000000
1 14
    -0.064140000000000    -0.000000000000000    -0.000000000000000
    -0.000000000000000    -0.154650500000000     0.156008500000000
    -0.000000000000000    -0.156055000000000     0.234361500000000
1 15
    -0.063913000000000     0.000000000000000    -0.000000000000000
     0.000000000000000    -0.154650500000000     0.156008500000000
     0.000000000000000    -0.156055000000000     0.234361500000000
1 16
     0.339518000000000    -0.000000000000000    -0.000000000000000
    -0.000000000000000    -3.392400499999999     1.200378000000000
    -0.000000000000000    -1.200423500000000     1.831048500000000
1 17
    -0.072530000000000     0.000000000000000    -0.000000000000000
    -0.000000000000000    -0.151654500000000     0.170067500000000
    -0.000000000000000    -0.170121000000000     0.242549500000000
1 18
    -0.072685000000000    -0.000000000000000    -0.000000000000000
     0.000000000000000    -0.151654500000000     0.170067500000000
     0.000000000000000    -0.170121000000000     0.242549500000000
1 19
     0.022999000000000    -0.000000000000000    -0.000000000000000
    -0.000000000000000     0.013742000000000    -0.196699000000000
    -0.000000000000000     0.196725500000000    -0.436196500000000
1 20
    -0.010827000000000    -0.000000000000000    -0.000000000000000
    -0.000000000000000     0.016418000000000    -0.070545500000000
    -0.000000000000000     0.070561500000000    -0.143011000000000
1 21
    -0.011030000000000     0.000000000000000    -0.000000000000000
     0.000000000000000     0.016418000000000    -0.070545500000000
     0.000000000000000     0.070561500000000    -0.143011000000000
1 22
     0.027302000000000    -0.000000000000000    -0.000000000000000
    -0.000000000000000     0.279592000000000    -0.328394500000000
    -0.000000000000000     0.328443500000000    -0.409373000000000
1 23
    -0.011581000000000    -0.000000000000000    -0.000000000000000
     0.000000000000000     0.099234500000000    -0.114450000000000
    -0.000000000000000     0.114445500000000    -0.147577500000000
1 24
    -0.011883000000000    -0.000000000000000    -0.000000000000000
    -0.000000000000000     0.099234500000000    -0.114450000000000
    -0.000000000000000     0.114445500000000    -0.147577500000000
1 25
    -0.619564000000000     0.352335500000000     0.374337500000000
     0.996024500000000    -0.184504500000000    -0.248801000000000
     1.026935750000000    -0.313416250000000    -0.082882500000000
1 26
    -0.619564000000000    -0.352335500000000    -0.374337500000000
    -0.996024500000000    -0.184504500000000    -0.248801000000000
    -1.026935750000000    -0.313416250000000    -0.082882500000000
1 27
    -0.370308500000000    -0.329437500000000    -0.372632000000000
    -0.895555250000000    -0.288291250000000    -0.249990500000000
    -0.988836000000000    -0.356883750000000    -0.101735250000000
1 28
    -0.370308500000000     0.329437500000000     0.372632000000000
     0.895555250000000    -0.288291250000000    -0.249990500000000
     0.988836000000000    -0.356883750000000    -0.101735250000000
1 29
    -0.029489000000000    -0.016771000000000     0.004668500000000
    -0.100469250000000    -0.107265000000000     0.070909250000000
    -0.038099750000000    -0.048231250000000     0.076404250000000
1 30
    -0.029489000000000     0.016771000000000    -0.004668500000000
     0.100469250000000    -0.107265000000000     0.070909250000000
     0.038099750000000    -0.048231250000000     0.076404250000000
1 31
    -0.030094500000000     0.001138000000000    -0.012512500000000
    -0.000382750000000     0.041315500000000    -0.025918750000000
    -0.113231000000000     0.040232750000000    -0.094030250000000
1 32
    -0.030094500000000    -0.001138000000000     0.012512500000000
     0.000382750000000     0.041315500000000    -0.025918750000000
     0.113231000000000     0.040232750000000    -0.094030250000000
1 33
     0.062119000000000     0.002906000000000     0.014534500000000
     0.128979000000000    -0.015631000000000    -0.065617000000000
     0.212545250000000    -0.001082750000000    -0.119019500000000
1 34
     0.062119000000000    -0.002906000000000    -0.014534500000000
    -0.128979000000000    -0.015631000000000    -0.065617000000000
    -0.212545250000000    -0.001082750000000    -0.119019500000000
1 35
    -0.042762000000000    -0.004157000000000    -0.002332500000000
    -0.128596250000000    -0.060424000000000    -0.083559750000000
    -0.099314250000000    -0.046042750000000    -0.088117750000000
1 36
    -0.042762000000000     0.004157000000000     0.002332500000000
     0.128596250000000    -0.060424000000000    -0.083559750000000
     0.099314250000000    -0.046042750000000    -0.088117750000000
1 37
    -0.096970000000000     0.000000000000000    -0.000000000000000
    -0.000000000000000    -2.225158000000000    -1.700340000000000
    -0.000000000000000    -2.454734500000000    -2.085946000000000
1 38
    -0.100914000000000    -0.000000000000000    -0.000000000000000
     0.000000000000000    -0.190554500000000    -0.187086500000000
     0.000000000000000    -0.198466000000000    -0.189914500000000
1 39
    -0.099787000000000     0.000000000000000    -0.000000000000000
    -0.000000000000000    -0.190554500000000    -0.187086500000000
    -0.000000000000000    -0.198466000000000    -0.189914500000000
1 40
     0.072864000000000     0.000000000000000    -0.000000000000000
    -0.000000000000000     0.171465500000000     0.355936500000000
    -0.000000000000000     0.280245000000000     0.248083500000000
1 41
    -0.041944000000000     0.000000000000000    -0.000000000000000
    -0.000000000000000     0.043472500000000     0.067269500000000
    -0.000000000000000     0.089938000000000     0.042987500000000
1 42
    -0.041794000000000    -0.000000000000000    -0.000000000000000
     0.000000000000000     0.043472500000000     0.067269500000000
     0.000000000000000     0.089938000000000     0.042987500000000
1 43
     0.072808000000000     0.000000000000000    -0.000000000000000
    -0.000000000000000     0.171537000000000     0.280309500000000
    -0.000000000000000     0.356052000000000     0.248155000000000
1 44
    -0.041948000000000    -0.000000000000000    -0.000000000000000
    -0.000000000000000     0.043472000000000     0.089932000000000
     0.000000000000000     0.067242500000000     0.042960500000000
1 45
    -0.041751000000000     0.000000000000000    -0.000000000000000
     0.000000000000000     0.043472000000000     0.089932000000000
    -0.000000000000000     0.067242500000000     0.042960500000000
1 46
    -0.097082000000000     0.000000000000000    -0.000000000000000
    -0.000000000000000    -2.225335000000000    -2.454849000000000
    -0.000000000000000    -1.700353000000000    -2.085925500000000
1 47
    -0.100310000000000     0.000000000000000    -0.000000000000000
     0.000000000000000    -0.190650000000000    -0.198558500000000
     0.000000000000000    -0.187090500000000    -0.189936500000000
1 48
    -0.100317000000000    -0.000000000000000    -0.000000000000000
    -0.000000000000000    -0.190650000000000    -0.198558500000000
    -0.000000000000000    -0.187090500000000    -0.189936500000000
1 49
     0.267956000000000    -0.000000000000000    -0.000000000000000
    -0.000000000000000     1.027028000000000    -1.127010500000000
    -0.000000000000000     0.574468500000000    -2.562145500000000
1 50
    -0.067046000000000     0.000000000000000    -0.000000000000000
    -0.000000000000000     0.249233000000000    -0.151033000000000
     0.000000000000000     0.176655000000000    -0.142256500000000
1 51
    -0.066679000000000    -0.000000000000000    -0.000000000000000
     0.000000000000000     0.249233000000000    -0.151033000000000
    -0.000000000000000     0.176655000000000    -0.142256500000000
1 52
     0.025477000000000    -0.000000000000000    -0.000000000000000
    -0.000000000000000    -0.567803500000000     0.290268000000000
    -0.000000000000000    -0.374345500000000     0.186098500000000
1 53
    -0.011647000000000    -0.000000000000000    -0.000000000000000
     0.000000000000000    -0.160851000000000     0.092382000000000
     0.000000000000000    -0.104635500000000     0.059850000000000
1 54
    -0.011910000000000    -0.000000000000000    -0.000000000000000
    -0.000000000000000    -0.160851000000000     0.092382000000000
    -0.000000000000000    -0.104635500000000     0.059850000000000
1 55
     0.267922000000000    -0.000000000000000    -0.000000000000000
    -0.000000000000000     1.027023500000000    -0.574460000000000
    -0.000000000000000     1.127073500000000    -2.562004500000000
1 56
    -0.066818000000000    -0.000000000000000    -0.000000000000000
    -0.000000000000000     0.249280000000000    -0.176712500000000
    -0.000000000000000     0.151029000000000    -0.142261500000000
1 57
    -0.066872000000000     0.000000000000000    -0.000000000000000
     0.000000000000000     0.249280000000000    -0.176712500000000
     0.000000000000000     0.151029000000000    -0.142261500000000
1 58
     0.025400000000000    -0.000000000000000    -0.000000000000000
    -0.000000000000000    -0.567807000000000     0.374359500000000
    -0.000000000000000    -0.290238000000000     0.186060500000000
1 59
    -0.011510000000000    -0.000000000000000    -0.000000000000000
    -0.000000000000000    -0.160801000000000     0.104590000000000
    -0.000000000000000    -0.092347000000000     0.059819500000000
1 60
    -0.011964000000000    -0.000000000000000    -0.000000000000000
     0.000000000000000    -0.160801000000000     0.104590000000000
     0.000000000000000    -0.092347000000000     0.059819500000000
1 61
    -0.038857500000000     0.008358000000000     0.011829000000000
     0.062202750000000    -0.096574250000000    -0.065020500000000
     0.079030000000000    -0.087256250000000    -0.080230000000000
1 62
    -0.038857500000000    -0.008358000000000    -0.011829000000000
    -0.062202750000000    -0.096574250000000    -0.065020500000000
    -0.079030000000000    -0.087256250000000    -0.080230000000000
1 63
     0.044806500000000    -0.006968500000000    -0.033268000000000
    -0.093329250000000    -0.008129000000000    -0.069424750000000
    -0.149274250000000    -0.002649750000000    -0.125923000000000
1 64
     0.044806500000000     0.006968500000000     0.033268000000000
     0.093329250000000    -0.008129000000000    -0.069424750000000
     0.149274250000000    -0.002649750000000    -0.125923000000000
1 65
    -0.025087000000000    -0.001496000000000     0.021149000000000
     0.031126500000000     0.080501750000000    -0.036054500000000
     0.070244250000000     0.076884000000000    -0.088653750000000
1 66
    -0.025087000000000     0.001496000000000    -0.021149000000000
    -0.031126500000000     0.080501750000000    -0.036054500000000
    -0.070244250000000     0.076884000000000    -0.088653750000000
1 67
    -0.029278500000000     0.017277500000000     0.000939500000000
     0.107665750000000    -0.087788500000000     0.066945000000000
     0.013857250000000    -0.024496500000000     0.060556000000000
1 68
    -0.029278500000000    -0.017277500000000    -0.000939500000000
    -0.107665750000000    -0.087788500000000     0.066945000000000
    -0.013857250000000    -0.024496500000000     0.060556000000000
1 69
    -0.497193500000000     0.406466000000000     0.400480500000000
     1.176929500000000    -0.106616000000000    -0.225572000000000
     1.180707500000000    -0.237440000000000    -0.098869750000000
1 70
    -0.497193500000000    -0.406466000000000    -0.400480500000000
    -1.176929500000000    -0.106616000000000    -0.225572000000000
    -1.180707500000000    -0.237440000000000    -0.098869750000000
1 71
    -0.764630500000000    -0.417946000000000    -0.396335000000000
    -1.284595250000000    -0.009005250000000    -0.294634000000000
    -1.194564750000000    -0.205763500000000    -0.153535000000000
1 72
    -0.764630500000000     0.417946000000000     0.396335000000000
     1.284595250000000    -0.009005250000000    -0.294634000000000
     1.194564750000000    -0.205763500000000    -0.153535000000000
1 73
     0.006938000000000     0.000101500000000    -0.017634000000000
    -0.038696000000000    -0.018155000000000     0.093167250000000
    -0.054565750000000    -0.001700250000000     0.122011500000000
1 74
     0.006938000000000    -0.000101500000000     0.017634000000000
     0.038696000000000    -0.018155000000000     0.093167250000000
     0.054565750000000    -0.001700250000000     0.122011500000000
1 75
    -0.014608500000000    -0.002260000000000     0.019633000000000
     0.033288500000000    -0.003071750000000     0.068890250000000
     0.056072250000000     0.002947500000000     0.101575750000000
1 76
    -0.014608500000000     0.002260000000000    -0.019633000000000
    -0.033288500000000    -0.003071750000000     0.068890250000000
    -0.056072250000000     0.002947500000000     0.101575750000000
1 77
     0.004564000000000     0.002032500000000    -0.001982500000000
     0.005407500000000     0.013115250000000    -0.001141000000000
    -0.001506500000000     0.002631250000000     0.013578750000000
1 78
     0.004564000000000    -0.002032500000000     0.001982500000000
    -0.005407500000000     0.013115250000000    -0.001141000000000
     0.001506500000000     0.002631250000000     0.013578750000000
1 79
    -0.093627500000000     0.021244500000000    -0.030432000000000
    -0.035406000000000    -0.144384250000000    -0.084807750000000
    -0.077768750000000    -0.034025500000000    -0.209060750000000
1 80
    -0.093627500000000    -0.021244500000000     0.030432000000000
     0.035406000000000    -0.144384250000000    -0.084807750000000
     0.077768750000000    -0.034025500000000    -0.209060750000000
1 81
    -0.126404500000000    -0.040798500000000     0.025998500000000
    -0.030197750000000    -0.010402500000000    -0.068195500000000
     0.038618500000000     0.057597000000000    -0.201396500000000
1 82
    -0.126404500000000     0.040798500000000    -0.025998500000000
     0.030197750000000    -0.010402500000000    -0.068195500000000
    -0.038618500000000     0.057597000000000    -0.201396500000000
1 83
     0.008419500000000     0.024684000000000     0.000091000000000
     0.065603750000000     0.133516500000000     0.002158750000000
     0.039150250000000     0.091304750000000    -0.017102000000000
1 84
     0.008419500000000    -0.024684000000000    -0.000091000000000
    -0.065603750000000     0.133516500000000     0.002158750000000
    -0.039150250000000     0.091304750000000    -0.017102000000000
1 85
     0.005998000000000    -0.018594000000000     0.000326500000000
    -0.040750500000000     0.108203250000000    -0.003431250000000
    -0.029066500000000     0.092671000000000    -0.039716750000000
1 86
     0.005998000000000     0.018594000000000    -0.000326500000000
     0.040750500000000     0.108203250000000    -0.003431250000000
     0.029066500000000     0.092671000000000    -0.039716750000000
1 87
    -0.056995500000000     0.007462500000000     0.025926500000000
     0.067893000000000    -0.106681500000000    -0.065805000000000
     0.093570750000000    -0.056379000000000    -0.130233000000000
1 88
    -0.056995500000000    -0.007462500000000    -0.025926500000000
    -0.067893000000000    -0.106681500000000    -0.065805000000000
    -0.093570750000000    -0.056379000000000    -0.130233000000000
1 89
    -0.012067000000000     0.013501000000000    -0.029355500000000
    -0.027142500000000    -0.211856250000000    -0.095832250000000
    -0.064504250000000    -0.145740250000000    -0.134672750000000
1 90
    -0.012067000000000    -0.013501000000000     0.029355500000000
     0.027142500000000    -0.211856250000000    -0.095832250000000
     0.064504250000000    -0.145740250000000    -0.134672750000000
1 91
     0.004695000000000    -0.002575000000000     0.002960500000000
    -0.000253000000000     0.031114750000000     0.006064000000000
     0.007230750000000     0.002515750000000     0.029705000000000
1 92
     0.004695000000000     0.002575000000000    -0.002960500000000
     0.000253000000000     0.031114750000000     0.006064000000000
    -0.007230750000000     0.002515750000000     0.029705000000000
1 93
    -0.013621000000000     0.001942000000000    -0.027577000000000
    -0.020550000000000    -0.011519000000000     0.070915500000000
    -0.041398250000000    -0.000317000000000     0.100761000000000
1 94
    -0.013621000000000    -0.001942000000000     0.027577000000000
     0.020550000000000    -0.011519000000000     0.070915500000000
     0.041398250000000    -0.000317000000000     0.100761000000000
1 95
     0.006451000000000     0.000414500000000     0.024777500000000
     0.020803000000000    -0.043718250000000     0.089751750000000
     0.034167500000000    -0.004209500000000     0.105648250000000
1 96
     0.006451000000000    -0.000414500000000    -0.024777500000000
    -0.020803000000000    -0.043718250000000     0.089751750000000
    -0.034167500000000    -0.004209500000000     0.105648250000000
1 97
    -1.427601999999999     0.000000000000000     0.000000000000000
    -0.000000000000000     1.361140000000000     2.026021000000001
    -0.000000000000000     2.588034500000000     0.215682500000000
1 98
     0.800542000000000     0.000000000000000     0.000000000000000
     0.000000000000000    -0.298630500000000    -0.151532500000000
    -0.000000000000000    -0.171908000000000    -0.263671500000000
1 99
     0.795030000000000    -0.000000000000000     0.000000000000000
    -0.000000000000000    -0.298630500000000    -0.151532500000000
     0.000000000000000    -0.171908000000000    -0.263671500000000
1 100
    -0.164898000000000     0.000000000000000     0.000000000000000
    -0.000000000000000     1.604183000000000    -1.286687000000000
    -0.000000000000000     0.727008500000000    -0.928737000000000
1 101
     0.078842000000000    -0.000000000000000     0.000000000000000
     0.000000000000000     0.261117500000000    -0.181644500000000
     0.000000000000000     0.123845000000000    -0.243909500000000
1 102
     0.080012000000000     0.000000000000000     0.000000000000000
    -0.000000000000000     0.261117500000000    -0.181644500000000
    -0.000000000000000     0.123845000000000    -0.243909500000000
1 103
    -0.176995000000000    -0.000000000000000     0.000000000000000
    -0.000000000000000    -0.564776500000000     0.282315500000000
    -0.000000000000000    -1.223608500000000     1.293553500000000
1 104
     0.083085000000000     0.000000000000000     0.000000000000000
    -0.000000000000000    -0.231250000000000     0.101062000000000
    -0.000000000000000    -0.158097500000000     0.236738000000000
1 105
     0.084043000000000    -0.000000000000000     0.000000000000000
     0.000000000000000    -0.231250000000000     0.101062000000000
     0.000000000000000    -0.158097500000000     0.236738000000000
1 106
    -0.107035000000000     0.000000000000000     0.000000000000000
    -0.000000000000000     1.197455500000000     1.071625500000000
    -0.000000000000000     0.908209000000000     1.020387500000000
1 107
     0.064732000000000    -0.000000000000000     0.000000000000000
    -0.000000000000000     0.262456000000000     0.219783000000000
    -0.000000000000000     0.203616000000000     0.262089500000000
1 108
     0.066982000000000     0.000000000000000     0.000000000000000
     0.000000000000000     0.262456000000000     0.219783000000000
     0.000000000000000     0.203616000000000     0.262089500000000
1 109
    -0.116732000000000    -0.000000000000000     0.000000000000000
    -0.000000000000000     1.099506500000000     0.827223000000000
    -0.000000000000000     1.022908500000000     1.030239000000000
1 110
     0.061475000000000     0.000000000000000     0.000000000000000
    -0.000000000000000     0.297865500000000     0.199854500000000
     0.000000000000000     0.230962500000000     0.265805000000000
1 111
     0.063308000000000    -0.000000000000000     0.000000000000000
     0.000000000000000     0.297865500000000     0.199854500000000
    -0.000000000000000     0.230962500000000     0.265805000000000
1 112
    -0.153428000000000    -0.000000000000000     0.000000000000000
    -0.000000000000000    -0.955094000000000     0.562308500000000
    -0.000000000000000    -1.045785500000000     1.220653000000000
1 113
     0.075777000000000    -0.000000000000000     0.000000000000000
     0.000000000000000    -0.252560000000000     0.150307000000000
     0.000000000000000    -0.186604000000000     0.265120500000000
1 114
     0.076577000000000     0.000000000000000     0.000000000000000
    -0.000000000000000    -0.252560000000000     0.150307000000000
    -0.000000000000000    -0.186604000000000     0.265120500000000
1 115
    -0.171397000000000     0.000000000000000     0.000000000000000
    -0.000000000000000     1.693999000000000    -1.078516500000000
    -0.000000000000000     0.512145000000000    -0.734874500000000
1 116
     0.084475000000000     0.000000000000000     0.000000000000000
    -0.000000000000000     0.307446500000000    -0.162480000000000
     0.000000000000000     0.149367000000000    -0.217520500000000
1 117
     0.085263000000000    -0.000000000000000     0.000000000000000
     0.000000000000000     0.307446500000000    -0.162480000000000
    -0.000000000000000     0.149367000000000    -0.217520500000000
1 118
    -2.107985999999999    -0.000000000000000     0.000000000000000
    -0.000000000000000    -8.566201000000001    -5.348615500000001
    -0.000000000000000    -5.537353000000000    -7.064177000000000
1 119
     1.007084999999999    -0.000000000000000     0.000000000000000
     0.000000000000000    -0.340092500000000    -0.220138500000000
     0.000000000000000    -0.191524000000000    -0.349098000000000
1 120
     1.005487999999999     0.000000000000000     0.000000000000000
    -0.000000000000000    -0.340092500000000    -0.220138500000000
    -0.000000000000000    -0.191524000000000    -0.349098000000000
13 1
     0.243443000000000    -0.000000000000000     0.000000000000000
     0.000000000000000    -2.676630499999999    -0.849295000000000
     0.000000000000000     0.849332000000000     0.875439500000000
13 2
    -0.064140000000000    -0.000000000000000     0.000000000000000
    -0.000000000000000    -0.154650500000000    -0.156008500000000
     0.000000000000000     0.156055000000000     0.234361500000000
13 3
    -0.063913000000000     0.000000000000000     0.000000000000000
     0.000000000000000    -0.154650500000000    -0.156008500000000
    -0.000000000000000     0.156055000000000     0.234361500000000
13 4
     0.339518000000000    -0.000000000000000     0.000000000000000
     0.000000000000000    -3.392400499999999    -1.200378000000000
     0.000000000000000     1.200423499999999     1.831048500000000
13 5
    -0.072530000000000     0.000000000000000     0.000000000000000
    -0.000000000000000    -0.151654500000000    -0.170067500000000
     0.000000000000000     0.170121000000000     0.242549500000000
13 6
    -0.072685000000000    -0.000000000000000     0.000000000000000
     0.000000000000000    -0.151654500000000    -0.170067500000000
    -0.000000000000000     0.170121000000000     0.242549500000000
13 7
     0.022999000000000    -0.000000000000000     0.000000000000000
     0.000000000000000     0.013742000000000     0.196699000000000
     0.000000000000000    -0.196725500000000    -0.436196500000000
13 8
    -0.010827000000000    -0.000000000000000     0.000000000000000
    -0.000000000000000     0.016418000000000     0.070545500000000
     0.000000000000000    -0.070561500000000    -0.143011000000000
13 9
    -0.011030000000000     0.000000000000000     0.000000000000000
     0.000000000000000     0.016418000000000     0.070545500000000
    -0.000000000000000    -0.070561500000000    -0.143011000000000
13 10
     0.027302000000000    -0.000000000000000     0.000000000000000
     0.000000000000000     0.279592000000000     0.328394500000000
     0.000000000000000    -0.328443500000000    -0.409373000000000
13 11
    -0.011581000000000    -0.000000000000000     0.000000000000000
     0.000000000000000     0.099234500000000     0.114450000000000
     0.000000000000000    -0.114445500000000    -0.147577500000000
13 12
    -0.011883000000000    -0.000000000000000     0.000000000000000
    -0.000000000000000     0.099234500000000     0.114450000000000
     0.000000000000000    -0.114445500000000    -0.147577500000000
13 13
     5.505750999999997     0.000000000000000     0.000000000000000
     0.000000000000000    15.720150999999996    -9.470405999999999
     0.000000000000000    -9.469783499999997    14.078943000000001
13 14
    -0.142597000000000    -0.000000000000000     0.000000000000000
     0.000000000000000     0.573017000000000    -0.485156000000000
    -0.000000000000000    -0.485193500000000     0.546553500000000
13 15
    -0.142628000000000     0.000000000000000     0.000000000000000
    -0.000000000000000     0.573017000000000    -0.485156000000000
     0.000000000000000    -0.485193500000000     0.546553500000000
13 16
     0.021810000000000     0.000000000000000     0.000000000000000
     0.000000000000000    -0.858628500000000     0.264128000000000
     0.000000000000000     0.264017500000000     0.031660000000000
13 17
    -0.014603000000000     0.000000000000000     0.000000000000000
     0.000000000000000    -0.163175500000000     0.057490500000000
     0.000000000000000     0.057448500000000     0.027032000000000
13 18
    -0.015000000000000     0.000000000000000     0.000000000000000
    -0.000000000000000    -0.163175500000000     0.057490500000000
    -0.000000000000000     0.057448500000000     0.027032000000000
13 19
     0.022981000000000     0.000000000000000     0.000000000000000
     0.000000000000000     0.090282000000000     0.175263000000000
     0.000000000000000     0.175378500000000    -0.655980000000000
13 20
    -0.014331000000000     0.000000000000000     0.000000000000000
    -0.000000000000000     0.035973000000000     0.046078000000000
    -0.000000000000000     0.046110500000000    -0.137573500000000
13 21
    -0.014480000000000     0.000000000000000     0.000000000000000
     0.000000000000000     0.035973000000000     0.046078000000000
     0.000000000000000     0.046110500000000    -0.137573500000000
13 22
     0.008319000000000     0.000000000000000     0.000000000000000
     0.000000000000000    -0.595553500000000     0.557861000000000
     0.000000000000000     0.557859000000000    -0.547446000000000
13 23
    -0.015064000000000     0.000000000000000     0.000000000000000
    -0.000000000000000    -0.168726000000000     0.152469500000000
    -0.000000000000000     0.152432000000000    -0.160796500000000
13 24
    -0.015445000000000     0.000000000000000     0.000000000000000
     0.000000000000000    -0.168726000000000     0.152469500000000
     0.000000000000000     0.152432000000000    -0.160796500000000
13 25
    -0.619564000000000    -0.352335500000000     0.374337500000000
    -0.996024500000000    -0.184504500000000     0.248801000000000
     1.026935750000000     0.313416250000000    -0.082882500000000
13 26
    -0.619564000000000     0.352335500000000    -0.374337500000000