   8   64
1 1
     1.806194000000001    -0.000000000000000    -0.000000000000000
    -0.000000000000000     1.806194000000001    -0.000000000000000
    -0.000000000000000    -0.000000000000000     1.806194000000001
1 2
    -0.302404000000000    -0.000000000000000    -0.000000000000000
    -0.000000000000000     0.004340000000000    -0.000000000000000
    -0.000000000000000    -0.000000000000000     0.004340000000000
1 3
     0.004340000000000    -0.000000000000000    -0.000000000000000
    -0.000000000000000    -0.302404000000000    -0.000000000000000
    -0.000000000000000    -0.000000000000000     0.004340000000000
1 4
    -0.010669000000000    -0.000000000000000    -0.000000000000000
    -0.000000000000000    -0.010669000000000    -0.000000000000000
    -0.000000000000000    -0.000000000000000     0.015899000000000
1 5
     0.004340000000000    -0.000000000000000    -0.000000000000000
    -0.000000000000000     0.004340000000000    -0.000000000000000
    -0.000000000000000    -0.000000000000000    -0.302404000000000
1 6
    -0.010669000000000    -0.000000000000000    -0.000000000000000
    -0.000000000000000     0.015899000000000    -0.000000000000000
    -0.000000000000000    -0.000000000000000    -0.010669000000000
1 7
     0.015899000000000    -0.000000000000000    -0.000000000000000
    -0.000000000000000    -0.010669000000000    -0.000000000000000
    -0.000000000000000    -0.000000000000000    -0.010669000000000
1 8
    -0.013442000000000    -0.000000000000000    -0.000000000000000
    -0.000000000000000    -0.013442000000000    -0.000000000000000
    -0.000000000000000    -0.000000000000000    -0.013442000000000
1 9
     0.057168000000000    -0.000000000000000    -0.000000000000000
    -0.000000000000000    -0.048479000000000    -0.192846000000000
    -0.000000000000000    -0.192846000000000    -0.048479000000000
1 10
    -0.038176000000000     0.000000000000000     0.000000000000000
    -0.000000000000000     0.001787500000000     0.001746000000000
    -0.000000000000000     0.001746000000000     0.001787500000000
1 11
     0.057168000000000     0.000000000000000    -0.000000000000000
    -0.000000000000000    -0.048479000000000     0.192846000000000
    -0.000000000000000     0.192846000000000    -0.048479000000000
1 12
    -0.038176000000000    -0.000000000000000     0.000000000000000
    -0.000000000000000     0.001787500000000    -0.001746000000000
    -0.000000000000000    -0.001746000000000     0.001787500000000
1 13
     0.057168000000000    -0.000000000000000     0.000000000000000
    -0.000000000000000    -0.048479000000000     0.192846000000000
    -0.000000000000000     0.192846000000000    -0.048479000000000
1 14
    -0.038176000000000     0.000000000000000    -0.000000000000000
    -0.000000000000000     0.001787500000000    -0.001746000000000
    -0.000000000000000    -0.001746000000000     0.001787500000000
1 15
     0.057168000000000     0.000000000000000     0.000000000000000
    -0.000000000000000    -0.048479000000000    -0.192846000000000
    -0.000000000000000    -0.192846000000000    -0.048479000000000
1 16
    -0.038176000000000    -0.000000000000000    -0.000000000000000
    -0.000000000000000     0.001787500000000     0.001746000000000
    -0.000000000000000     0.001746000000000     0.001787500000000
1 17
    -0.048479000000000    -0.000000000000000    -0.192846000000000
    -0.000000000000000     0.057168000000000    -0.000000000000000
    -0.192846000000000    -0.000000000000000    -0.048479000000000
1 18
    -0.048479000000000    -0.000000000000000     0.192846000000000
    -0.000000000000000     0.057168000000000    -0.000000000000000
     0.192846000000000    -0.000000000000000    -0.048479000000000
1 19
     0.001787500000000    -0.000000000000000     0.001746000000000
    -0.000000000000000    -0.038176000000000    -0.000000000000000
     0.001746000000000    -0.000000000000000     0.001787500000000
1 20
     0.001787500000000    -0.000000000000000    -0.001746000000000
     0.000000000000000    -0.038176000000000    -0.000000000000000
    -0.001746000000000    -0.000000000000000     0.001787500000000
1 21
    -0.048479000000000    -0.000000000000000     0.192846000000000
    -0.000000000000000     0.057168000000000    -0.000000000000000
     0.192846000000000    -0.000000000000000    -0.048479000000000
1 22
    -0.048479000000000    -0.000000000000000    -0.192846000000000
    -0.000000000000000     0.057168000000000    -0.000000000000000
    -0.192846000000000    -0.000000000000000    -0.048479000000000
1 23
     0.001787500000000    -0.000000000000000    -0.001746000000000
    -0.000000000000000    -0.038176000000000     0.000000000000000
    -0.001746000000000    -0.000000000000000     0.001787500000000
1 24
     0.001787500000000    -0.000000000000000     0.001746000000000
     0.000000000000000    -0.038176000000000     0.000000000000000
     0.001746000000000    -0.000000000000000     0.001787500000000
1 25
    -0.048479000000000    -0.192846000000000    -0.000000000000000
    -0.192846000000000    -0.048479000000000    -0.000000000000000
    -0.000000000000000    -0.000000000000000     0.057168000000000
1 26
    -0.048479000000000     0.192846000000000    -0.000000000000000
     0.192846000000000    -0.048479000000000    -0.000000000000000
    -0.000000000000000    -0.000000000000000     0.057168000000000
1 27
    -0.048479000000000     0.192846000000000    -0.000000000000000
     0.192846000000000    -0.048479000000000    -0.000000000000000
    -0.000000000000000    -0.000000000000000     0.057168000000000
1 28
    -0.048479000000000    -0.192846000000000    -0.000000000000000
    -0.192846000000000    -0.048479000000000    -0.000000000000000
    -0.000000000000000    -0.000000000000000     0.057168000000000
1 29
     0.001787500000000     0.001746000000000    -0.000000000000000
     0.001746000000000     0.001787500000000    -0.000000000000000
    -0.000000000000000    -0.000000000000000    -0.038176000000000
1 30
     0.001787500000000    -0.001746000000000    -0.000000000000000
    -0.001746000000000     0.001787500000000    -0.000000000000000
     0.000000000000000    -0.000000000000000    -0.038176000000000
1 31
     0.001787500000000    -0.001746000000000    -0.000000000000000
    -0.001746000000000     0.001787500000000    -0.000000000000000
    -0.000000000000000     0.000000000000000    -0.038176000000000
1 32
     0.001787500000000     0.001746000000000    -0.000000000000000
     0.001746000000000     0.001787500000000    -0.000000000000000
     0.000000000000000     0.000000000000000    -0.038176000000000
1 33
     0.008229500000000     0.042704000000000     0.042704000000000
     0.042704000000000     0.008229500000000     0.042704000000000
     0.042704000000000     0.042704000000000     0.008229500000000
1 34
     0.008229500000000    -0.042704000000000    -0.042704000000000
    -0.042704000000000     0.008229500000000     0.042704000000000
    -0.042704000000000     0.042704000000000     0.008229500000000
1 35
     0.008229500000000    -0.042704000000000     0.042704000000000
    -0.042704000000000     0.008229500000000    -0.042704000000000
     0.042704000000000    -0.042704000000000     0.008229500000000
1 36
     0.008229500000000     0.042704000000000    -0.042704000000000
     0.042704000000000     0.008229500000000    -0.042704000000000
    -0.042704000000000    -0.042704000000000     0.008229500000000
1 37
     0.008229500000000     0.042704000000000    -0.042704000000000
     0.042704000000000     0.008229500000000    -0.042704000000000
    -0.042704000000000    -0.042704000000000     0.008229500000000
1 38
     0.008229500000000    -0.042704000000000     0.042704000000000
    -0.042704000000000     0.008229500000000    -0.042704000000000
     0.042704000000000    -0.042704000000000     0.008229500000000
1 39
     0.008229500000000    -0.042704000000000    -0.042704000000000
    -0.042704000000000     0.008229500000000     0.042704000000000
    -0.042704000000000     0.042704000000000     0.008229500000000
1 40
     0.008229500000000     0.042704000000000     0.042704000000000
     0.042704000000000     0.008229500000000     0.042704000000000
     0.042704000000000     0.042704000000000     0.008229500000000
1 41
    -0.481710500000000    -0.000000000000000    -0.000000000000000
    -0.000000000000000    -0.171488000000000    -0.000000000000000
    -0.000000000000000    -0.000000000000000    -0.171488000000000
1 42
    -0.481710500000000    -0.000000000000000    -0.000000000000000
     0.000000000000000    -0.171488000000000    -0.000000000000000
     0.000000000000000    -0.000000000000000    -0.171488000000000
1 43
    -0.003910000000000    -0.000000000000000    -0.000000000000000
     0.000000000000000     0.096003000000000    -0.000000000000000
     0.000000000000000    -0.000000000000000    -0.019361000000000
1 44
    -0.003910000000000    -0.000000000000000    -0.000000000000000
    -0.000000000000000     0.096003000000000    -0.000000000000000
    -0.000000000000000    -0.000000000000000    -0.019361000000000
1 45
    -0.003910000000000    -0.000000000000000    -0.000000000000000
     0.000000000000000    -0.019361000000000    -0.000000000000000
     0.000000000000000    -0.000000000000000     0.096003000000000
1 46
    -0.003910000000000    -0.000000000000000    -0.000000000000000
    -0.000000000000000    -0.019361000000000    -0.000000000000000
    -0.000000000000000    -0.000000000000000     0.096003000000000
1 47
     0.001116500000000    -0.000000000000000    -0.000000000000000
     0.000000000000000     0.023590000000000    -0.000000000000000
     0.000000000000000    -0.000000000000000     0.023590000000000
1 48
     0.001116500000000    -0.000000000000000    -0.000000000000000
    -0.000000000000000     0.023590000000000    -0.000000000000000
    -0.000000000000000    -0.000000000000000     0.023590000000000
1 49
    -0.171488000000000     0.000000000000000    -0.000000000000000
    -0.000000000000000    -0.481710500000000    -0.000000000000000
    -0.000000000000000    -0.000000000000000    -0.171488000000000
1 50
     0.096003000000000    -0.000000000000000    -0.000000000000000
    -0.000000000000000    -0.003910000000000    -0.000000000000000
    -0.000000000000000     0.000000000000000    -0.019361000000000
1 51
    -0.171488000000000    -0.000000000000000    -0.000000000000000
    -0.000000000000000    -0.481710500000000    -0.000000000000000
    -0.000000000000000     0.000000000000000    -0.171488000000000
1 52
     0.096003000000000     0.000000000000000    -0.000000000000000
    -0.000000000000000    -0.003910000000000    -0.000000000000000
    -0.000000000000000    -0.000000000000000    -0.019361000000000
1 53
    -0.019361000000000     0.000000000000000    -0.000000000000000
    -0.000000000000000    -0.003910000000000    -0.000000000000000
    -0.000000000000000     0.000000000000000     0.096003000000000
1 54
     0.023590000000000    -0.000000000000000    -0.000000000000000
    -0.000000000000000     0.001116500000000    -0.000000000000000
    -0.000000000000000     0.000000000000000     0.023590000000000
1 55
    -0.019361000000000    -0.000000000000000    -0.000000000000000
    -0.000000000000000    -0.003910000000000    -0.000000000000000
    -0.000000000000000    -0.000000000000000     0.096003000000000
1 56
     0.023590000000000     0.000000000000000    -0.000000000000000
    -0.000000000000000     0.001116500000000    -0.000000000000000
    -0.000000000000000    -0.000000000000000     0.023590000000000
1 57
    -0.171488000000000    -0.000000000000000     0.000000000000000
    -0.000000000000000    -0.171488000000000    -0.000000000000000
    -0.000000000000000    -0.000000000000000    -0.481710500000000
1 58
     0.096003000000000    -0.000000000000000    -0.000000000000000
    -0.000000000000000    -0.019361000000000     0.000000000000000
    -0.000000000000000    -0.000000000000000    -0.003910000000000
1 59
    -0.019361000000000    -0.000000000000000     0.000000000000000
    -0.000000000000000     0.096003000000000     0.000000000000000
    -0.000000000000000    -0.000000000000000    -0.003910000000000
1 60
     0.023590000000000    -0.000000000000000    -0.000000000000000
    -0.000000000000000     0.023590000000000     0.000000000000000
    -0.000000000000000    -0.000000000000000     0.001116500000000
1 61
    -0.171488000000000    -0.000000000000000    -0.000000000000000
    -0.000000000000000    -0.171488000000000     0.000000000000000
    -0.000000000000000    -0.000000000000000    -0.481710500000000
1 62
     0.096003000000000    -0.000000000000000     0.000000000000000
    -0.000000000000000    -0.019361000000000    -0.000000000000000
    -0.000000000000000    -0.000000000000000    -0.003910000000000
1 63
    -0.019361000000000    -0.000000000000000    -0.000000000000000
    -0.000000000000000     0.096003000000000    -0.000000000000000
    -0.000000000000000    -0.000000000000000    -0.003910000000000
1 64
     0.023590000000000    -0.000000000000000     0.000000000000000
    -0.000000000000000     0.023590000000000    -0.000000000000000
    -0.000000000000000    -0.000000000000000     0.001116500000000
9 1
     0.057168000000000     0.000000000000000     0.000000000000000
     0.000000000000000    -0.048479000000000    -0.192846000000000
     0.000000000000000    -0.192846000000000    -0.048479000000000
9 2
    -0.038176000000000    -0.000000000000000    -0.000000000000000
     0.000000000000000     0.001787500000000     0.001746000000000
     0.000000000000000     0.001746000000000     0.001787500000000
9 3
     0.057168000000000     0.000000000000000     0.000000000000000
     0.000000000000000    -0.048479000000000     0.192846000000000
     0.000000000000000     0.192846000000000    -0.048479000000000
9 4
    -0.038176000000000     0.000000000000000    -0.000000000000000
     0.000000000000000     0.001787500000000    -0.001746000000000
     0.000000000000000    -0.001746000000000     0.001787500000000
9 5
     0.057168000000000     0.000000000000000     0.000000000000000
     0.000000000000000    -0.048479000000000     0.192846000000000
     0.000000000000000     0.192846000000000    -0.048479000000000
9 6
    -0.038176000000000    -0.000000000000000     0.000000000000000
     0.000000000000000     0.001787500000000    -0.001746000000000
     0.000000000000000    -0.001746000000000     0.001787500000000
9 7
     0.057168000000000     0.000000000000000     0.000000000000000
     0.000000000000000    -0.048479000000000    -0.192846000000000
     0.000000000000000    -0.192846000000000    -0.048479000000000
9 8
    -0.038176000000000     0.000000000000000     0.000000000000000
     0.000000000000000     0.001787500000000     0.001746000000000
     0.000000000000000     0.001746000000000     0.001787500000000
9 9
     1.806194000000001     0.000000000000000     0.000000000000000
     0.000000000000000     1.806194000000001     0.000000000000000
     0.000000000000000     0.000000000000000     1.806194000000001
9 10
    -0.302404000000000     0.000000000000000     0.000000000000000
     0.000000000000000     0.004340000000000     0.000000000000000
     0.000000000000000     0.000000000000000     0.004340000000000
9 11
     0.004340000000000     0.000000000000000     0.000000000000000
     0.000000000000000    -0.302404000000000     0.000000000000000
     0.000000000000000     0.000000000000000     0.004340000000000
9 12
    -0.010669000000000     0.000000000000000     0.000000000000000
     0.000000000000000    -0.010669000000000     0.000000000000000
     0.000000000000000     0.000000000000000     0.015899000000000
9 13
     0.004340000000000     0.000000000000000     0.000000000000000
     0.000000000000000     0.004340000000000     0.000000000000000
     0.000000000000000     0.000000000000000    -0.302404000000000
9 14
    -0.010669000000000     0.000000000000000     0.000000000000000
     0.000000000000000     0.015899000000000     0.000000000000000
     0.000000000000000     0.000000000000000    -0.010669000000000
9 15
     0.015899000000000     0.000000000000000     0.000000000000000
     0.000000000000000    -0.010669000000000     0.000000000000000
     0.000000000000000     0.000000000000000    -0.010669000000000
9 16
    -0.013442000000000     0.000000000000000     0.000000000000000
     0.000000000000000    -0.013442000000000     0.000000000000000
     0.000000000000000     0.000000000000000    -0.013442000000000
9 17
    -0.048479000000000     0.192846000000000     0.000000000000000
     0.192846000000000    -0.048479000000000     0.000000000000000
    -0.000000000000000     0.000000000000000     0.057168000000000
9 18
    -0.048479000000000    -0.192846000000000     0.000000000000000
    -0.192846000000000    -0.048479000000000     0.000000000000000
     0.000000000000000     0.000000000000000     0.057168000000000
9 19
    -0.048479000000000    -0.192846000000000     0.000000000000000
    -0.192846000000000    -0.048479000000000     0.000000000000000
    -0.000000000000000    -0.000000000000000     0.057168000000000
9 20
    -0.048479000000000     0.192846000000000     0.000000000000000
     0.192846000000000    -0.048479000000000     0.000000000000000
     0.000000000000000    -0.000000000000000     0.057168000000000
9 21
     0.001787500000000    -0.001746000000000     0.000000000000000
    -0.001746000000000     0.001787500000000     0.000000000000000
     0.000000000000000    -0.000000000000000    -0.038176000000000
9 22
     0.001787500000000     0.001746000000000     0.000000000000000
     0.001746000000000     0.001787500000000     0.000000000000000
    -0.000000000000000    -0.000000000000000    -0.038176000000000
9 23
     0.001787500000000     0.001746000000000     0.000000000000000
     0.001746000000000     0.001787500000000     0.000000000000000
     0.000000000000000     0.000000000000000    -0.038176000000000
9 24
     0.001787500000000    -0.001746000000000     0.000000000000000
    -0.001746000000000     0.001787500000000     0.000000000000000
    -0.000000000000000     0.000000000000000    -0.038176000000000
9 25
    -0.048479000000000     0.000000000000000     0.192846000000000
     0.000000000000000     0.057168000000000     0.000000000000000
     0.192846000000000     0.000000000000000    -0.048479000000000
9 26
    -0.048479000000000     0.000000000000000    -0.192846000000000
     0.000000000000000     0.057168000000000     0.000000000000000
    -0.192846000000000     0.000000000000000    -0.048479000000000
9 27
     0.001787500000000     0.000000000000000    -0.001746000000000
    -0.000000000000000    -0.038176000000000     0.000000000000000
    -0.001746000000000     0.000000000000000     0.001787500000000
9 28
     0.001787500000000     0.000000000000000     0.001746000000000
     0.000000000000000    -0.038176000000000     0.000000000000000
     0.001746000000000     0.000000000000000     0.001787500000000
9 29
    -0.048479000000000     0.000000000000000    -0.192846000000000
     0.000000000000000     0.057168000000000     0.000000000000000
    -0.192846000000000     0.000000000000000    -0.048479000000000
9 30
    -0.048479000000000     0.000000000000000     0.192846000000000
     0.000000000000000     0.057168000000000     0.000000000000000
     0.192846000000000     0.000000000000000    -0.048479000000000
9 31
     0.001787500000000     0.000000000000000     0.001746000000000
    -0.000000000000000    -0.038176000000000    -0.000000000000000
     0.001746000000000     0.000000000000000     0.001787500000000
9 32
     0.001787500000000     0.000000000000000    -0.001746000000000
     0.000000000000000    -0.038176000000000    -0.000000000000000
    -0.001746000000000     0.000000000000000     0.001787500000000
9 33
    -0.481710500000000     0.000000000000000     0.000000000000000
    -0.000000000000000    -0.171488000000000     0.000000000000000
     0.000000000000000     0.000000000000000    -0.171488000000000
9 34
    -0.481710500000000     0.000000000000000     0.000000000000000
     0.000000000000000    -0.171488000000000     0.000000000000000
    -0.000000000000000     0.000000000000000    -0.171488000000000
9 35
    -0.003910000000000     0.000000000000000     0.000000000000000
     0.000000000000000     0.096003000000000     0.000000000000000
     0.000000000000000     0.000000000000000    -0.019361000000000
9 36
    -0.003910000000000     0.000000000000000     0.000000000000000
    -0.000000000000000     0.096003000000000     0.000000000000000
    -0.000000000000000     0.000000000000000    -0.019361000000000
9 37
    -0.003910000000000     0.000000000000000     0.000000000000000
     0.000000000000000    -0.019361000000000     0.000000000000000
    -0.000000000000000     0.000000000000000     0.096003000000000
9 38
    -0.003910000000000     0.000000000000000     0.000000000000000
    -0.000000000000000    -0.019361000000000     0.000000000000000
     0.000000000000000     0.000000000000000     0.096003000000000
9 39
     0.001116500000000     0.000000000000000     0.000000000000000
     0.000000000000000     0.023590000000000     0.000000000000000
    -0.000000000000000     0.000000000000000     0.023590000000000
9 40
     0.001116500000000     0.000000000000000     0.000000000000000
    -0.000000000000000     0.023590000000000     0.000000000000000
     0.000000000000000     0.000000000000000     0.023590000000000
9 41
     0.008229500000000    -0.042704000000000    -0.042704000000000
    -0.042704000000000     0.008229500000000     0.042704000000000
    -0.042704000000000     0.042704000000000     0.008229500000000
9 42
     0.008229500000000     0.042704000000000     0.042704000000000
     0.042704000000000     0.008229500000000     0.042704000000000
     0.042704000000000     0.042704000000000     0.008229500000000
9 43
     0.008229500000000     0.042704000000000    -0.042704000000000
     0.042704000000000     0.008229500000000    -0.042704000000000
    -0.042704000000000    -0.042704000000000     0.008229500000000
9 44
     0.008229500000000    -0.042704000000000     0.042704000000000
    -0.042704000000000     0.008229500000000    -0.042704000000000
     0.042704000000000    -0.042704000000000     0.008229500000000
9 45
     0.008229500000000    -0.042704000000000     0.042704000000000
    -0.042704000000000     0.008229500000000    -0.042704000000000
     0.042704000000000    -0.042704000000000     0.008229500000000
9 46
     0.008229500000000     0.042704000000000    -0.042704000000000
     0.042704000000000     0.008229500000000    -0.042704000000000
    -0.042704000000000    -0.042704000000000     0.008229500000000
9 47
     0.008229500000000     0.042704000000000     0.042704000000000
     0.042704000000000     0.008229500000000     0.042704000000000
     0.042704000000000     0.042704000000000     0.008229500000000
9 48
     0.008229500000000    -0.042704000000000    -0.042704000000000
    -0.042704000000000     0.008229500000000     0.042704000000000
    -0.042704000000000     0.042704000000000     0.008229500000000
9 49
    -0.171488000000000     0.000000000000000    -0.000000000000000
     0.000000000000000    -0.171488000000000     0.000000000000000
     0.000000000000000     0.000000000000000    -0.481710500000000
9 50
     0.096003000000000     0.000000000000000     0.000000000000000
     0.000000000000000    -0.019361000000000    -0.000000000000000
     0.000000000000000     0.000000000000000    -0.003910000000000
9 51
    -0.019361000000000     0.000000000000000     0.000000000000000
     0.000000000000000     0.096003000000000    -0.000000000000000
     0.000000000000000     0.000000000000000    -0.003910000000000
9 52
     0.023590000000000     0.000000000000000     0.000000000000000
     0.000000000000000     0.023590000000000    -0.000000000000000
     0.000000000000000     0.000000000000000     0.001116500000000
9 53
    -0.171488000000000     0.000000000000000     0.000000000000000
     0.000000000000000    -0.171488000000000    -0.000000000000000
     0.000000000000000     0.000000000000000    -0.481710500000000
9 54
     0.096003000000000     0.000000000000000    -0.000000000000000
     0.000000000000000    -0.019361000000000     0.000000000000000
     0.000000000000000     0.000000000000000    -0.003910000000000
9 55
    -0.019361000000000     0.000000000000000    -0.000000000000000
     0.000000000000000     0.096003000000000     0.000000000000000
     0.000000000000000     0.000000000000000    -0.003910000000000
9 56
     0.023590000000000     0.000000000000000    -0.000000000000000
     0.000000000000000     0.023590000000000     0.000000000000000
     0.000000000000000     0.000000000000000     0.001116500000000
9 57
    -0.171488000000000    -0.000000000000000     0.000000000000000
     0.000000000000000    -0.481710500000000     0.000000000000000
     0.000000000000000    -0.000000000000000    -0.171488000000000
9 58
     0.096003000000000     0.000000000000000     0.000000000000000
     0.000000000000000    -0.003910000000000     0.000000000000000
     0.000000000000000    -0.000000000000000    -0.019361000000000
9 59
    -0.171488000000000     0.000000000000000     0.000000000000000
     0.000000000000000    -0.481710500000000     0.000000000000000
     0.000000000000000     0.000000000000000    -0.171488000000000
9 60
     0.096003000000000    -0.000000000000000     0.000000000000000
     0.000000000000000    -0.003910000000000     0.000000000000000
     0.000000000000000     0.000000000000000    -0.019361000000000
9 61
    -0.019361000000000     0.000000000000000     0.000000000000000
     0.000000000000000    -0.003910000000000     0.000000000000000
     0.000000000000000     0.000000000000000     0.096003000000000
9 62
     0.023590000000000     0.000000000000000     0.000000000000000
     0.000000000000000     0.001116500000000     0.000000000000000
     0.000000000000000     0.000000000000000     0.023590000000000
9 63
    -0.019361000000000    -0.000000000000000     0.000000000000000
     0.000000000000000    -0.003910000000000     0.000000000000000
     0.000000000000000    -0.000000000000000     0.096003000000000
9 64
     0.023590000000000    -0.000000000000000     0.000000000000000
     0.000000000000000     0.001116500000000     0.000000000000000
     0.000000000000000    -0.000000000000000     0.023590000000000
17 1
    -0.048479000000000     0.000000000000000    -0.192846000000000
     0.000000000000000     0.057168000000000     0.000000000000000
    -0.192846000000000     0.000000000000000    -0.048479000000000
17 2
    -0.048479000000000     0.000000000000000     0.192846000000000
     0.000000000000000     0.057168000000000     0.000000000000000
     0.192846000000000     0.000000000000000    -0.048479000000000
17 3
     0.001787500000000     0.000000000000000     0.001746000000000
     0.000000000000000    -0.038176000000000     0.000000000000000
     0.001746000000000     0.000000000000000     0.001787500000000
17 4
     0.001787500000000     0.000000000000000    -0.001746000000000
    -0.000000000000000    -0.038176000000000     0.000000000000000
    -0.001746000000000     0.000000000000000     0.001787500000000
17 5
    -0.048479000000000     0.000000000000000     0.192846000000000
     0.000000000000000     0.057168000000000     0.000000000000000
     0.192846000000000     0.000000000000000    -0.048479000000000
17 6
    -0.048479000000000     0.000000000000000    -0.192846000000000
     0.000000000000000     0.057168000000000     0.000000000000000
    -0.192846000000000     0.000000000000000    -0.048479000000000
17 7
     0.001787500000000     0.000000000000000    -0.001746000000000
     0.000000000000000    -0.038176000000000    -0.000000000000000
    -0.001746000000000     0.000000000000000     0.001787500000000
17 8
     0.001787500000000     0.000000000000000     0.001746000000000
    -0.000000000000000    -0.038176000000000    -0.000000000000000
     0.001746000000000     0.000000000000000     0.001787500000000
17 9
    -0.048479000000000     0.192846000000000     0.000000000000000
     0.192846000000000    -0.048479000000000     0.000000000000000
     0.000000000000000    -0.000000000000000     0.057168000000000
17 10
    -0.048479000000000    -0.192846000000000     0.000000000000000
    -0.192846000000000    -0.048479000000000     0.000000000000000
    -0.000000000000000    -0.000000000000000     0.057168000000000
17 11
    -0.048479000000000    -0.192846000000000     0.000000000000000
    -0.192846000000000    -0.048479000000000     0.000000000000000
     0.000000000000000     0.000000000000000     0.057168000000000
17 12
    -0.048479000000000     0.192846000000000     0.000000000000000
     0.192846000000000    -0.048479000000000     0.000000000000000
    -0.000000000000000     0.000000000000000     0.057168000000000
17 13
     0.001787500000000    -0.001746000000000     0.000000000000000
    -0.001746000000000     0.001787500000000     0.000000000000000
    -0.000000000000000     0.000000000000000    -0.038176000000000
17 14
     0.001787500000000     0.001746000000000     0.000000000000000
     0.001746000000000     0.001787500000000     0.000000000000000
     0.000000000000000     0.000000000000000    -0.038176000000000
17 15
     0.001787500000000     0.001746000000000     0.000000000000000
     0.001746000000000     0.001787500000000     0.000000000000000
    -0.000000000000000    -0.000000000000000    -0.038176000000000
17 16
     0.001787500000000    -0.001746000000000     0.000000000000000
    -0.001746000000000     0.001787500000000     0.000000000000000
     0.000000000000000    -0.000000000000000    -0.038176000000000
17 17
     1.806194000000001     0.000000000000000     0.000000000000000
     0.000000000000000     1.806194000000001     0.000000000000000
     0.000000000000000     0.000000000000000     1.806194000000001
17 18
    -0.302404000000000     0.000000000000000     0.000000000000000