phonopy:
  version: 2.3.2
  frequency_unit_conversion_factor: 15.633302
  configuration:
    cell_filename: "POSCAR_Amm2"
    dim: "2 2 2"
    create_displacements: ".true."

physical_unit:
  atomic_mass: "AMU"
  length: "Angstrom"
  force_constants: "eV/Angstrom^2"

supercell_matrix:
- [   2,   0,   0 ]
- [   0,   2,   0 ]
- [   0,   0,   2 ]

space_group:
  type: "Amm2"
  number: 38
  Hall_symbol: "A 2 -2"

primitive_cell:
  lattice:
  - [     3.999502840000000,     0.000000000000000,     0.000000000000000 ] # a
  - [     0.000000000000000,     5.738973100000000,     0.000000000000000 ] # b
  - [     0.000000000000000,     0.000000000000000,     5.759604630000000 ] # c
  points:
  - symbol: O  # 1
    coordinates: [  0.000000000000000,  0.751986820000000,  0.780623720000000 ]
    mass: 15.999400
  - symbol: O  # 2
    coordinates: [  0.000000000000000,  0.248013180000000,  0.780623720000000 ]
    mass: 15.999400
  - symbol: O  # 3
    coordinates: [  0.500000000000000,  0.500000000000000,  0.533267210000000 ]
    mass: 15.999400
  - symbol: O  # 4
    coordinates: [  0.000000000000000,  0.251986820000000,  0.280623720000000 ]
    mass: 15.999400
  - symbol: O  # 5
    coordinates: [  0.000000000000000,  0.748013180000000,  0.280623720000000 ]
    mass: 15.999400
  - symbol: O  # 6
    coordinates: [  0.500000000000000,  0.000000000000000,  0.033267210000000 ]
    mass: 15.999400
  - symbol: K  # 7
    coordinates: [  0.500000000000000,  0.500000000000000,  0.013455130000000 ]
    mass: 39.098300
  - symbol: K  # 8
    coordinates: [  0.500000000000000,  0.000000000000000,  0.513455130000000 ]
    mass: 39.098300
  - symbol: Nb # 9
    coordinates: [  0.000000000000000,  0.500000000000000,  0.500030200000000 ]
    mass: 92.906380
  - symbol: Nb # 10
    coordinates: [  0.000000000000000,  0.000000000000000,  0.000030200000000 ]
    mass: 92.906380
  reciprocal_lattice: # without 2pi
  - [     0.250031076362481,     0.000000000000000,     0.000000000000000 ] # a*
  - [     0.000000000000000,     0.174247201123839,     0.000000000000000 ] # b*
  - [     0.000000000000000,     0.000000000000000,     0.173623028704316 ] # c*

unit_cell:
  lattice:
  - [     3.999502840000000,     0.000000000000000,     0.000000000000000 ] # a
  - [     0.000000000000000,     5.738973100000000,     0.000000000000000 ] # b
  - [     0.000000000000000,     0.000000000000000,     5.759604630000000 ] # c
  points:
  - symbol: O  # 1
    coordinates: [  0.000000000000000,  0.751986820000000,  0.780623720000000 ]
    mass: 15.999400
    reduced_to: 1
  - symbol: O  # 2
    coordinates: [  0.000000000000000,  0.248013180000000,  0.780623720000000 ]
    mass: 15.999400
    reduced_to: 2
  - symbol: O  # 3
    coordinates: [  0.500000000000000,  0.500000000000000,  0.533267210000000 ]
    mass: 15.999400
    reduced_to: 3
  - symbol: O  # 4
    coordinates: [  0.000000000000000,  0.251986820000000,  0.280623720000000 ]
    mass: 15.999400
    reduced_to: 4
  - symbol: O  # 5
    coordinates: [  0.000000000000000,  0.748013180000000,  0.280623720000000 ]
    mass: 15.999400
    reduced_to: 5
  - symbol: O  # 6
    coordinates: [  0.500000000000000,  0.000000000000000,  0.033267210000000 ]
    mass: 15.999400
    reduced_to: 6
  - symbol: K  # 7
    coordinates: [  0.500000000000000,  0.500000000000000,  0.013455130000000 ]
    mass: 39.098300
    reduced_to: 7
  - symbol: K  # 8
    coordinates: [  0.500000000000000,  0.000000000000000,  0.513455130000000 ]
    mass: 39.098300
    reduced_to: 8
  - symbol: Nb # 9
    coordinates: [  0.000000000000000,  0.500000000000000,  0.500030200000000 ]
    mass: 92.906380
    reduced_to: 9
  - symbol: Nb # 10
    coordinates: [  0.000000000000000,  0.000000000000000,  0.000030200000000 ]
    mass: 92.906380
    reduced_to: 10

supercell:
  lattice:
  - [     7.999005680000000,     0.000000000000000,     0.000000000000000 ] # a
  - [     0.000000000000000,    11.477946200000000,     0.000000000000000 ] # b
  - [     0.000000000000000,     0.000000000000000,    11.519209260000000 ] # c
  points:
  - symbol: O  # 1
    coordinates: [  0.000000000000000,  0.375993410000000,  0.390311860000000 ]
    mass: 15.999400
    reduced_to: 1
  - symbol: O  # 2
    coordinates: [  0.500000000000000,  0.375993410000000,  0.390311860000000 ]
    mass: 15.999400
    reduced_to: 1
  - symbol: O  # 3
    coordinates: [  0.000000000000000,  0.875993410000000,  0.390311860000000 ]
    mass: 15.999400
    reduced_to: 1
  - symbol: O  # 4
    coordinates: [  0.500000000000000,  0.875993410000000,  0.390311860000000 ]
    mass: 15.999400
    reduced_to: 1
  - symbol: O  # 5
    coordinates: [  0.000000000000000,  0.375993410000000,  0.890311860000000 ]
    mass: 15.999400
    reduced_to: 1
  - symbol: O  # 6
    coordinates: [  0.500000000000000,  0.375993410000000,  0.890311860000000 ]
    mass: 15.999400
    reduced_to: 1
  - symbol: O  # 7
    coordinates: [  0.000000000000000,  0.875993410000000,  0.890311860000000 ]
    mass: 15.999400
    reduced_to: 1
  - symbol: O  # 8
    coordinates: [  0.500000000000000,  0.875993410000000,  0.890311860000000 ]
    mass: 15.999400
    reduced_to: 1
  - symbol: O  # 9
    coordinates: [  0.000000000000000,  0.124006590000000,  0.390311860000000 ]
    mass: 15.999400
    reduced_to: 9
  - symbol: O  # 10
    coordinates: [  0.500000000000000,  0.124006590000000,  0.390311860000000 ]
    mass: 15.999400
    reduced_to: 9
  - symbol: O  # 11
    coordinates: [  0.000000000000000,  0.624006590000000,  0.390311860000000 ]
    mass: 15.999400
    reduced_to: 9
  - symbol: O  # 12
    coordinates: [  0.500000000000000,  0.624006590000000,  0.390311860000000 ]
    mass: 15.999400
    reduced_to: 9
  - symbol: O  # 13
    coordinates: [  0.000000000000000,  0.124006590000000,  0.890311860000000 ]
    mass: 15.999400
    reduced_to: 9
  - symbol: O  # 14
    coordinates: [  0.500000000000000,  0.124006590000000,  0.890311860000000 ]
    mass: 15.999400
    reduced_to: 9
  - symbol: O  # 15
    coordinates: [  0.000000000000000,  0.624006590000000,  0.890311860000000 ]
    mass: 15.999400
    reduced_to: 9
  - symbol: O  # 16
    coordinates: [  0.500000000000000,  0.624006590000000,  0.890311860000000 ]
    mass: 15.999400
    reduced_to: 9
  - symbol: O  # 17
    coordinates: [  0.250000000000000,  0.250000000000000,  0.266633605000000 ]
    mass: 15.999400
    reduced_to: 17
  - symbol: O  # 18
    coordinates: [  0.750000000000000,  0.250000000000000,  0.266633605000000 ]
    mass: 15.999400
    reduced_to: 17
  - symbol: O  # 19
    coordinates: [  0.250000000000000,  0.750000000000000,  0.266633605000000 ]
    mass: 15.999400
    reduced_to: 17
  - symbol: O  # 20
    coordinates: [  0.750000000000000,  0.750000000000000,  0.266633605000000 ]
    mass: 15.999400
    reduced_to: 17
  - symbol: O  # 21
    coordinates: [  0.250000000000000,  0.250000000000000,  0.766633605000000 ]
    mass: 15.999400
    reduced_to: 17
  - symbol: O  # 22
    coordinates: [  0.750000000000000,  0.250000000000000,  0.766633605000000 ]
    mass: 15.999400
    reduced_to: 17
  - symbol: O  # 23
    coordinates: [  0.250000000000000,  0.750000000000000,  0.766633605000000 ]
    mass: 15.999400
    reduced_to: 17
  - symbol: O  # 24
    coordinates: [  0.750000000000000,  0.750000000000000,  0.766633605000000 ]
    mass: 15.999400
    reduced_to: 17
  - symbol: O  # 25
    coordinates: [  0.000000000000000,  0.125993410000000,  0.140311860000000 ]
    mass: 15.999400
    reduced_to: 25
  - symbol: O  # 26
    coordinates: [  0.500000000000000,  0.125993410000000,  0.140311860000000 ]
    mass: 15.999400
    reduced_to: 25
  - symbol: O  # 27
    coordinates: [  0.000000000000000,  0.625993410000000,  0.140311860000000 ]
    mass: 15.999400
    reduced_to: 25
  - symbol: O  # 28
    coordinates: [  0.500000000000000,  0.625993410000000,  0.140311860000000 ]
    mass: 15.999400
    reduced_to: 25
  - symbol: O  # 29
    coordinates: [  0.000000000000000,  0.125993410000000,  0.640311860000000 ]
    mass: 15.999400
    reduced_to: 25
  - symbol: O  # 30
    coordinates: [  0.500000000000000,  0.125993410000000,  0.640311860000000 ]
    mass: 15.999400
    reduced_to: 25
  - symbol: O  # 31
    coordinates: [  0.000000000000000,  0.625993410000000,  0.640311860000000 ]
    mass: 15.999400
    reduced_to: 25
  - symbol: O  # 32
    coordinates: [  0.500000000000000,  0.625993410000000,  0.640311860000000 ]
    mass: 15.999400
    reduced_to: 25
  - symbol: O  # 33
    coordinates: [  0.000000000000000,  0.374006590000000,  0.140311860000000 ]
    mass: 15.999400
    reduced_to: 33
  - symbol: O  # 34
    coordinates: [  0.500000000000000,  0.374006590000000,  0.140311860000000 ]
    mass: 15.999400
    reduced_to: 33
  - symbol: O  # 35
    coordinates: [  0.000000000000000,  0.874006590000000,  0.140311860000000 ]
    mass: 15.999400
    reduced_to: 33
  - symbol: O  # 36
    coordinates: [  0.500000000000000,  0.874006590000000,  0.140311860000000 ]
    mass: 15.999400
    reduced_to: 33
  - symbol: O  # 37
    coordinates: [  0.000000000000000,  0.374006590000000,  0.640311860000000 ]
    mass: 15.999400
    reduced_to: 33
  - symbol: O  # 38
    coordinates: [  0.500000000000000,  0.374006590000000,  0.640311860000000 ]
    mass: 15.999400
    reduced_to: 33
  - symbol: O  # 39
    coordinates: [  0.000000000000000,  0.874006590000000,  0.640311860000000 ]
    mass: 15.999400
    reduced_to: 33
  - symbol: O  # 40
    coordinates: [  0.500000000000000,  0.874006590000000,  0.640311860000000 ]
    mass: 15.999400
    reduced_to: 33
  - symbol: O  # 41
    coordinates: [  0.250000000000000,  0.000000000000000,  0.016633605000000 ]
    mass: 15.999400
    reduced_to: 41
  - symbol: O  # 42
    coordinates: [  0.750000000000000,  0.000000000000000,  0.016633605000000 ]
    mass: 15.999400
    reduced_to: 41
  - symbol: O  # 43
    coordinates: [  0.250000000000000,  0.500000000000000,  0.016633605000000 ]
    mass: 15.999400
    reduced_to: 41
  - symbol: O  # 44
    coordinates: [  0.750000000000000,  0.500000000000000,  0.016633605000000 ]
    mass: 15.999400
    reduced_to: 41
  - symbol: O  # 45
    coordinates: [  0.250000000000000,  0.000000000000000,  0.516633605000000 ]
    mass: 15.999400
    reduced_to: 41
  - symbol: O  # 46
    coordinates: [  0.750000000000000,  0.000000000000000,  0.516633605000000 ]
    mass: 15.999400
    reduced_to: 41
  - symbol: O  # 47
    coordinates: [  0.250000000000000,  0.500000000000000,  0.516633605000000 ]
    mass: 15.999400
    reduced_to: 41
  - symbol: O  # 48
    coordinates: [  0.750000000000000,  0.500000000000000,  0.516633605000000 ]
    mass: 15.999400
    reduced_to: 41
  - symbol: K  # 49
    coordinates: [  0.250000000000000,  0.250000000000000,  0.006727565000000 ]
    mass: 39.098300
    reduced_to: 49
  - symbol: K  # 50
    coordinates: [  0.750000000000000,  0.250000000000000,  0.006727565000000 ]
    mass: 39.098300
    reduced_to: 49
  - symbol: K  # 51
    coordinates: [  0.250000000000000,  0.750000000000000,  0.006727565000000 ]
    mass: 39.098300
    reduced_to: 49
  - symbol: K  # 52
    coordinates: [  0.750000000000000,  0.750000000000000,  0.006727565000000 ]
    mass: 39.098300
    reduced_to: 49
  - symbol: K  # 53
    coordinates: [  0.250000000000000,  0.250000000000000,  0.506727565000000 ]
    mass: 39.098300
    reduced_to: 49
  - symbol: K  # 54
    coordinates: [  0.750000000000000,  0.250000000000000,  0.506727565000000 ]
    mass: 39.098300
    reduced_to: 49
  - symbol: K  # 55
    coordinates: [  0.250000000000000,  0.750000000000000,  0.506727565000000 ]
    mass: 39.098300
    reduced_to: 49
  - symbol: K  # 56
    coordinates: [  0.750000000000000,  0.750000000000000,  0.506727565000000 ]
    mass: 39.098300
    reduced_to: 49
  - symbol: K  # 57
    coordinates: [  0.250000000000000,  0.000000000000000,  0.256727565000000 ]
    mass: 39.098300
    reduced_to: 57
  - symbol: K  # 58
    coordinates: [  0.750000000000000,  0.000000000000000,  0.256727565000000 ]
    mass: 39.098300
    reduced_to: 57
  - symbol: K  # 59
    coordinates: [  0.250000000000000,  0.500000000000000,  0.256727565000000 ]
    mass: 39.098300
    reduced_to: 57
  - symbol: K  # 60
    coordinates: [  0.750000000000000,  0.500000000000000,  0.256727565000000 ]
    mass: 39.098300
    reduced_to: 57
  - symbol: K  # 61
    coordinates: [  0.250000000000000,  0.000000000000000,  0.756727565000000 ]
    mass: 39.098300
    reduced_to: 57
  - symbol: K  # 62
    coordinates: [  0.750000000000000,  0.000000000000000,  0.756727565000000 ]
    mass: 39.098300
    reduced_to: 57
  - symbol: K  # 63
    coordinates: [  0.250000000000000,  0.500000000000000,  0.756727565000000 ]
    mass: 39.098300
    reduced_to: 57
  - symbol: K  # 64
    coordinates: [  0.750000000000000,  0.500000000000000,  0.756727565000000 ]
    mass: 39.098300
    reduced_to: 57
  - symbol: Nb # 65
    coordinates: [  0.000000000000000,  0.250000000000000,  0.250015100000000 ]
    mass: 92.906380
    reduced_to: 65
  - symbol: Nb # 66
    coordinates: [  0.500000000000000,  0.250000000000000,  0.250015100000000 ]
    mass: 92.906380
    reduced_to: 65
  - symbol: Nb # 67
    coordinates: [  0.000000000000000,  0.750000000000000,  0.250015100000000 ]
    mass: 92.906380
    reduced_to: 65
  - symbol: Nb # 68
    coordinates: [  0.500000000000000,  0.750000000000000,  0.250015100000000 ]
    mass: 92.906380
    reduced_to: 65
  - symbol: Nb # 69
    coordinates: [  0.000000000000000,  0.250000000000000,  0.750015100000000 ]
    mass: 92.906380
    reduced_to: 65
  - symbol: Nb # 70
    coordinates: [  0.500000000000000,  0.250000000000000,  0.750015100000000 ]
    mass: 92.906380
    reduced_to: 65
  - symbol: Nb # 71
    coordinates: [  0.000000000000000,  0.750000000000000,  0.750015100000000 ]
    mass: 92.906380
    reduced_to: 65
  - symbol: Nb # 72
    coordinates: [  0.500000000000000,  0.750000000000000,  0.750015100000000 ]
    mass: 92.906380
    reduced_to: 65
  - symbol: Nb # 73
    coordinates: [  0.000000000000000,  0.000000000000000,  0.000015100000000 ]
    mass: 92.906380
    reduced_to: 73
  - symbol: Nb # 74
    coordinates: [  0.500000000000000,  0.000000000000000,  0.000015100000000 ]
    mass: 92.906380
    reduced_to: 73
  - symbol: Nb # 75
    coordinates: [  0.000000000000000,  0.500000000000000,  0.000015100000000 ]
    mass: 92.906380
    reduced_to: 73
  - symbol: Nb # 76
    coordinates: [  0.500000000000000,  0.500000000000000,  0.000015100000000 ]
    mass: 92.906380
    reduced_to: 73
  - symbol: Nb # 77
    coordinates: [  0.000000000000000,  0.000000000000000,  0.500015100000000 ]
    mass: 92.906380
    reduced_to: 73
  - symbol: Nb # 78
    coordinates: [  0.500000000000000,  0.000000000000000,  0.500015100000000 ]
    mass: 92.906380
    reduced_to: 73
  - symbol: Nb # 79
    coordinates: [  0.000000000000000,  0.500000000000000,  0.500015100000000 ]
    mass: 92.906380
    reduced_to: 73
  - symbol: Nb # 80
    coordinates: [  0.500000000000000,  0.500000000000000,  0.500015100000000 ]
    mass: 92.906380
    reduced_to: 73

displacements:
- atom:    1
  displacement:
    [   0.0057175537662252,  0.0082042415207211,  0.0000000000000000 ]
- atom:    1
  displacement:
    [  -0.0057175537662252, -0.0082042415207211,  0.0000000000000000 ]
- atom:    1
  displacement:
    [   0.0000000000000000,  0.0000000000000000,  0.0100000000000000 ]
- atom:    1
  displacement:
    [   0.0000000000000000,  0.0000000000000000, -0.0100000000000000 ]
- atom:   17
  displacement:
    [   0.0044138901681141,  0.0063335864367485,  0.0063563555935820 ]
- atom:   17
  displacement:
    [  -0.0044138901681141, -0.0063335864367485, -0.0063563555935820 ]
- atom:   49
  displacement:
    [   0.0044138901681141,  0.0063335864367485,  0.0063563555935820 ]
- atom:   49
  displacement:
    [  -0.0044138901681141, -0.0063335864367485, -0.0063563555935820 ]
- atom:   65
  displacement:
    [   0.0044138901681141,  0.0063335864367485,  0.0063563555935820 ]
- atom:   65
  displacement:
    [  -0.0044138901681141, -0.0063335864367485, -0.0063563555935820 ]
