phonopy:
  version: 2.4.0
  frequency_unit_conversion_factor: 15.633302
  symmetry_tolerance: 1.00000e-05
  configuration:
    atom_name: "Si O"
    dim: "2 2 3"
    mp: "8 8 8"

physical_unit:
  atomic_mass: "AMU"
  length: "Angstrom"
  force_constants: "eV/Angstrom^2"

supercell_matrix:
- [   2,   0,   0 ]
- [   0,   2,   0 ]
- [   0,   0,   3 ]

space_group:
  type: "Amm2"
  number: 38
  Hall_symbol: "A 2 -2"

primitive_cell:
  lattice:
  - [     3.999502840000000,     0.000000000000000,     0.000000000000000 ] # a
  - [     0.000000000000000,     5.738973100000000,     0.000000000000000 ] # b
  - [     0.000000000000000,     0.000000000000000,     5.759604630000000 ] # c
  points:
  - symbol: O  # 1
    coordinates: [  0.000000000000000,  0.751986820000000,  0.780623720000000 ]
    mass: 15.999400
  - symbol: O  # 2
    coordinates: [  0.000000000000000,  0.248013180000000,  0.780623720000000 ]
    mass: 15.999400
  - symbol: O  # 3
    coordinates: [  0.500000000000000,  0.500000000000000,  0.533267210000000 ]
    mass: 15.999400
  - symbol: O  # 4
    coordinates: [  0.000000000000000,  0.251986820000000,  0.280623720000000 ]
    mass: 15.999400
  - symbol: O  # 5
    coordinates: [  0.000000000000000,  0.748013180000000,  0.280623720000000 ]
    mass: 15.999400
  - symbol: O  # 6
    coordinates: [  0.500000000000000,  0.000000000000000,  0.033267210000000 ]
    mass: 15.999400
  - symbol: K  # 7
    coordinates: [  0.500000000000000,  0.500000000000000,  0.013455130000000 ]
    mass: 39.098300
  - symbol: K  # 8
    coordinates: [  0.500000000000000,  0.000000000000000,  0.513455130000000 ]
    mass: 39.098300
  - symbol: Nb # 9
    coordinates: [  0.000000000000000,  0.500000000000000,  0.500030200000000 ]
    mass: 92.906380
  - symbol: Nb # 10
    coordinates: [  0.000000000000000,  0.000000000000000,  0.000030200000000 ]
    mass: 92.906380
  reciprocal_lattice: # without 2pi
  - [     0.250031076362481,     0.000000000000000,     0.000000000000000 ] # a*
  - [     0.000000000000000,     0.174247201123839,     0.000000000000000 ] # b*
  - [     0.000000000000000,     0.000000000000000,     0.173623028704316 ] # c*

unit_cell:
  lattice:
  - [     3.999502840000000,     0.000000000000000,     0.000000000000000 ] # a
  - [     0.000000000000000,     5.738973100000000,     0.000000000000000 ] # b
  - [     0.000000000000000,     0.000000000000000,     5.759604630000000 ] # c
  points:
  - symbol: O  # 1
    coordinates: [  0.000000000000000,  0.751986820000000,  0.780623720000000 ]
    mass: 15.999400
    reduced_to: 1
  - symbol: O  # 2
    coordinates: [  0.000000000000000,  0.248013180000000,  0.780623720000000 ]
    mass: 15.999400
    reduced_to: 2
  - symbol: O  # 3
    coordinates: [  0.500000000000000,  0.500000000000000,  0.533267210000000 ]
    mass: 15.999400
    reduced_to: 3
  - symbol: O  # 4
    coordinates: [  0.000000000000000,  0.251986820000000,  0.280623720000000 ]
    mass: 15.999400
    reduced_to: 4
  - symbol: O  # 5
    coordinates: [  0.000000000000000,  0.748013180000000,  0.280623720000000 ]
    mass: 15.999400
    reduced_to: 5
  - symbol: O  # 6
    coordinates: [  0.500000000000000,  0.000000000000000,  0.033267210000000 ]
    mass: 15.999400
    reduced_to: 6
  - symbol: K  # 7
    coordinates: [  0.500000000000000,  0.500000000000000,  0.013455130000000 ]
    mass: 39.098300
    reduced_to: 7
  - symbol: K  # 8
    coordinates: [  0.500000000000000,  0.000000000000000,  0.513455130000000 ]
    mass: 39.098300
    reduced_to: 8
  - symbol: Nb # 9
    coordinates: [  0.000000000000000,  0.500000000000000,  0.500030200000000 ]
    mass: 92.906380
    reduced_to: 9
  - symbol: Nb # 10
    coordinates: [  0.000000000000000,  0.000000000000000,  0.000030200000000 ]
    mass: 92.906380
    reduced_to: 10

supercell:
  lattice:
  - [     7.999005680000000,     0.000000000000000,     0.000000000000000 ] # a
  - [     0.000000000000000,    11.477946200000000,     0.000000000000000 ] # b
  - [     0.000000000000000,     0.000000000000000,    17.278813890000002 ] # c
  points:
  - symbol: O  # 1
    coordinates: [  0.000000000000000,  0.375993410000000,  0.260207906666667 ]
    mass: 15.999400
    reduced_to: 1
  - symbol: O  # 2
    coordinates: [  0.500000000000000,  0.375993410000000,  0.260207906666667 ]
    mass: 15.999400
    reduced_to: 1
  - symbol: O  # 3
    coordinates: [  0.000000000000000,  0.875993410000000,  0.260207906666667 ]
    mass: 15.999400
    reduced_to: 1
  - symbol: O  # 4
    coordinates: [  0.500000000000000,  0.875993410000000,  0.260207906666667 ]
    mass: 15.999400
    reduced_to: 1
  - symbol: O  # 5
    coordinates: [  0.000000000000000,  0.375993410000000,  0.593541240000000 ]
    mass: 15.999400
    reduced_to: 1
  - symbol: O  # 6
    coordinates: [  0.500000000000000,  0.375993410000000,  0.593541240000000 ]
    mass: 15.999400
    reduced_to: 1
  - symbol: O  # 7
    coordinates: [  0.000000000000000,  0.875993410000000,  0.593541240000000 ]
    mass: 15.999400
    reduced_to: 1
  - symbol: O  # 8
    coordinates: [  0.500000000000000,  0.875993410000000,  0.593541240000000 ]
    mass: 15.999400
    reduced_to: 1
  - symbol: O  # 9
    coordinates: [  0.000000000000000,  0.375993410000000,  0.926874573333333 ]
    mass: 15.999400
    reduced_to: 1
  - symbol: O  # 10
    coordinates: [  0.500000000000000,  0.375993410000000,  0.926874573333333 ]
    mass: 15.999400
    reduced_to: 1
  - symbol: O  # 11
    coordinates: [  0.000000000000000,  0.875993410000000,  0.926874573333333 ]
    mass: 15.999400
    reduced_to: 1
  - symbol: O  # 12
    coordinates: [  0.500000000000000,  0.875993410000000,  0.926874573333333 ]
    mass: 15.999400
    reduced_to: 1
  - symbol: O  # 13
    coordinates: [  0.000000000000000,  0.124006590000000,  0.260207906666667 ]
    mass: 15.999400
    reduced_to: 13
  - symbol: O  # 14
    coordinates: [  0.500000000000000,  0.124006590000000,  0.260207906666667 ]
    mass: 15.999400
    reduced_to: 13
  - symbol: O  # 15
    coordinates: [  0.000000000000000,  0.624006590000000,  0.260207906666667 ]
    mass: 15.999400
    reduced_to: 13
  - symbol: O  # 16
    coordinates: [  0.500000000000000,  0.624006590000000,  0.260207906666667 ]
    mass: 15.999400
    reduced_to: 13
  - symbol: O  # 17
    coordinates: [  0.000000000000000,  0.124006590000000,  0.593541240000000 ]
    mass: 15.999400
    reduced_to: 13
  - symbol: O  # 18
    coordinates: [  0.500000000000000,  0.124006590000000,  0.593541240000000 ]
    mass: 15.999400
    reduced_to: 13
  - symbol: O  # 19
    coordinates: [  0.000000000000000,  0.624006590000000,  0.593541240000000 ]
    mass: 15.999400
    reduced_to: 13
  - symbol: O  # 20
    coordinates: [  0.500000000000000,  0.624006590000000,  0.593541240000000 ]
    mass: 15.999400
    reduced_to: 13
  - symbol: O  # 21
    coordinates: [  0.000000000000000,  0.124006590000000,  0.926874573333333 ]
    mass: 15.999400
    reduced_to: 13
  - symbol: O  # 22
    coordinates: [  0.500000000000000,  0.124006590000000,  0.926874573333333 ]
    mass: 15.999400
    reduced_to: 13
  - symbol: O  # 23
    coordinates: [  0.000000000000000,  0.624006590000000,  0.926874573333333 ]
    mass: 15.999400
    reduced_to: 13
  - symbol: O  # 24
    coordinates: [  0.500000000000000,  0.624006590000000,  0.926874573333333 ]
    mass: 15.999400
    reduced_to: 13
  - symbol: O  # 25
    coordinates: [  0.250000000000000,  0.250000000000000,  0.177755736666667 ]
    mass: 15.999400
    reduced_to: 25
  - symbol: O  # 26
    coordinates: [  0.750000000000000,  0.250000000000000,  0.177755736666667 ]
    mass: 15.999400
    reduced_to: 25
  - symbol: O  # 27
    coordinates: [  0.250000000000000,  0.750000000000000,  0.177755736666667 ]
    mass: 15.999400
    reduced_to: 25
  - symbol: O  # 28
    coordinates: [  0.750000000000000,  0.750000000000000,  0.177755736666667 ]
    mass: 15.999400
    reduced_to: 25
  - symbol: O  # 29
    coordinates: [  0.250000000000000,  0.250000000000000,  0.511089070000000 ]
    mass: 15.999400
    reduced_to: 25
  - symbol: O  # 30
    coordinates: [  0.750000000000000,  0.250000000000000,  0.511089070000000 ]
    mass: 15.999400
    reduced_to: 25
  - symbol: O  # 31
    coordinates: [  0.250000000000000,  0.750000000000000,  0.511089070000000 ]
    mass: 15.999400
    reduced_to: 25
  - symbol: O  # 32
    coordinates: [  0.750000000000000,  0.750000000000000,  0.511089070000000 ]
    mass: 15.999400
    reduced_to: 25
  - symbol: O  # 33
    coordinates: [  0.250000000000000,  0.250000000000000,  0.844422403333333 ]
    mass: 15.999400
    reduced_to: 25
  - symbol: O  # 34
    coordinates: [  0.750000000000000,  0.250000000000000,  0.844422403333333 ]
    mass: 15.999400
    reduced_to: 25
  - symbol: O  # 35
    coordinates: [  0.250000000000000,  0.750000000000000,  0.844422403333333 ]
    mass: 15.999400
    reduced_to: 25
  - symbol: O  # 36
    coordinates: [  0.750000000000000,  0.750000000000000,  0.844422403333333 ]
    mass: 15.999400
    reduced_to: 25
  - symbol: O  # 37
    coordinates: [  0.000000000000000,  0.125993410000000,  0.093541240000000 ]
    mass: 15.999400
    reduced_to: 37
  - symbol: O  # 38
    coordinates: [  0.500000000000000,  0.125993410000000,  0.093541240000000 ]
    mass: 15.999400
    reduced_to: 37
  - symbol: O  # 39
    coordinates: [  0.000000000000000,  0.625993410000000,  0.093541240000000 ]
    mass: 15.999400
    reduced_to: 37
  - symbol: O  # 40
    coordinates: [  0.500000000000000,  0.625993410000000,  0.093541240000000 ]
    mass: 15.999400
    reduced_to: 37
  - symbol: O  # 41
    coordinates: [  0.000000000000000,  0.125993410000000,  0.426874573333333 ]
    mass: 15.999400
    reduced_to: 37
  - symbol: O  # 42
    coordinates: [  0.500000000000000,  0.125993410000000,  0.426874573333333 ]
    mass: 15.999400
    reduced_to: 37
  - symbol: O  # 43
    coordinates: [  0.000000000000000,  0.625993410000000,  0.426874573333333 ]
    mass: 15.999400
    reduced_to: 37
  - symbol: O  # 44
    coordinates: [  0.500000000000000,  0.625993410000000,  0.426874573333333 ]
    mass: 15.999400
    reduced_to: 37
  - symbol: O  # 45
    coordinates: [  0.000000000000000,  0.125993410000000,  0.760207906666667 ]
    mass: 15.999400
    reduced_to: 37
  - symbol: O  # 46
    coordinates: [  0.500000000000000,  0.125993410000000,  0.760207906666667 ]
    mass: 15.999400
    reduced_to: 37
  - symbol: O  # 47
    coordinates: [  0.000000000000000,  0.625993410000000,  0.760207906666667 ]
    mass: 15.999400
    reduced_to: 37
  - symbol: O  # 48
    coordinates: [  0.500000000000000,  0.625993410000000,  0.760207906666667 ]
    mass: 15.999400
    reduced_to: 37
  - symbol: O  # 49
    coordinates: [  0.000000000000000,  0.374006590000000,  0.093541240000000 ]
    mass: 15.999400
    reduced_to: 49
  - symbol: O  # 50
    coordinates: [  0.500000000000000,  0.374006590000000,  0.093541240000000 ]
    mass: 15.999400
    reduced_to: 49
  - symbol: O  # 51
    coordinates: [  0.000000000000000,  0.874006590000000,  0.093541240000000 ]
    mass: 15.999400
    reduced_to: 49
  - symbol: O  # 52
    coordinates: [  0.500000000000000,  0.874006590000000,  0.093541240000000 ]
    mass: 15.999400
    reduced_to: 49
  - symbol: O  # 53
    coordinates: [  0.000000000000000,  0.374006590000000,  0.426874573333333 ]
    mass: 15.999400
    reduced_to: 49
  - symbol: O  # 54
    coordinates: [  0.500000000000000,  0.374006590000000,  0.426874573333333 ]
    mass: 15.999400
    reduced_to: 49
  - symbol: O  # 55
    coordinates: [  0.000000000000000,  0.874006590000000,  0.426874573333333 ]
    mass: 15.999400
    reduced_to: 49
  - symbol: O  # 56
    coordinates: [  0.500000000000000,  0.874006590000000,  0.426874573333333 ]
    mass: 15.999400
    reduced_to: 49
  - symbol: O  # 57
    coordinates: [  0.000000000000000,  0.374006590000000,  0.760207906666667 ]
    mass: 15.999400
    reduced_to: 49
  - symbol: O  # 58
    coordinates: [  0.500000000000000,  0.374006590000000,  0.760207906666667 ]
    mass: 15.999400
    reduced_to: 49
  - symbol: O  # 59
    coordinates: [  0.000000000000000,  0.874006590000000,  0.760207906666667 ]
    mass: 15.999400
    reduced_to: 49
  - symbol: O  # 60
    coordinates: [  0.500000000000000,  0.874006590000000,  0.760207906666667 ]
    mass: 15.999400
    reduced_to: 49
  - symbol: O  # 61
    coordinates: [  0.250000000000000,  0.000000000000000,  0.011089070000000 ]
    mass: 15.999400
    reduced_to: 61
  - symbol: O  # 62
    coordinates: [  0.750000000000000,  0.000000000000000,  0.011089070000000 ]
    mass: 15.999400
    reduced_to: 61
  - symbol: O  # 63
    coordinates: [  0.250000000000000,  0.500000000000000,  0.011089070000000 ]
    mass: 15.999400
    reduced_to: 61
  - symbol: O  # 64
    coordinates: [  0.750000000000000,  0.500000000000000,  0.011089070000000 ]
    mass: 15.999400
    reduced_to: 61
  - symbol: O  # 65
    coordinates: [  0.250000000000000,  0.000000000000000,  0.344422403333333 ]
    mass: 15.999400
    reduced_to: 61
  - symbol: O  # 66
    coordinates: [  0.750000000000000,  0.000000000000000,  0.344422403333333 ]
    mass: 15.999400
    reduced_to: 61
  - symbol: O  # 67
    coordinates: [  0.250000000000000,  0.500000000000000,  0.344422403333333 ]
    mass: 15.999400
    reduced_to: 61
  - symbol: O  # 68
    coordinates: [  0.750000000000000,  0.500000000000000,  0.344422403333333 ]
    mass: 15.999400
    reduced_to: 61
  - symbol: O  # 69
    coordinates: [  0.250000000000000,  0.000000000000000,  0.677755736666667 ]
    mass: 15.999400
    reduced_to: 61
  - symbol: O  # 70
    coordinates: [  0.750000000000000,  0.000000000000000,  0.677755736666667 ]
    mass: 15.999400
    reduced_to: 61
  - symbol: O  # 71
    coordinates: [  0.250000000000000,  0.500000000000000,  0.677755736666667 ]
    mass: 15.999400
    reduced_to: 61
  - symbol: O  # 72
    coordinates: [  0.750000000000000,  0.500000000000000,  0.677755736666667 ]
    mass: 15.999400
    reduced_to: 61
  - symbol: K  # 73
    coordinates: [  0.250000000000000,  0.250000000000000,  0.004485043333333 ]
    mass: 39.098300
    reduced_to: 73
  - symbol: K  # 74
    coordinates: [  0.750000000000000,  0.250000000000000,  0.004485043333333 ]
    mass: 39.098300
    reduced_to: 73
  - symbol: K  # 75
    coordinates: [  0.250000000000000,  0.750000000000000,  0.004485043333333 ]
    mass: 39.098300
    reduced_to: 73
  - symbol: K  # 76
    coordinates: [  0.750000000000000,  0.750000000000000,  0.004485043333333 ]
    mass: 39.098300
    reduced_to: 73
  - symbol: K  # 77
    coordinates: [  0.250000000000000,  0.250000000000000,  0.337818376666667 ]
    mass: 39.098300
    reduced_to: 73
  - symbol: K  # 78
    coordinates: [  0.750000000000000,  0.250000000000000,  0.337818376666667 ]
    mass: 39.098300
    reduced_to: 73
  - symbol: K  # 79
    coordinates: [  0.250000000000000,  0.750000000000000,  0.337818376666667 ]
    mass: 39.098300
    reduced_to: 73
  - symbol: K  # 80
    coordinates: [  0.750000000000000,  0.750000000000000,  0.337818376666667 ]
    mass: 39.098300
    reduced_to: 73
  - symbol: K  # 81
    coordinates: [  0.250000000000000,  0.250000000000000,  0.671151710000000 ]
    mass: 39.098300
    reduced_to: 73
  - symbol: K  # 82
    coordinates: [  0.750000000000000,  0.250000000000000,  0.671151710000000 ]
    mass: 39.098300
    reduced_to: 73
  - symbol: K  # 83
    coordinates: [  0.250000000000000,  0.750000000000000,  0.671151710000000 ]
    mass: 39.098300
    reduced_to: 73
  - symbol: K  # 84
    coordinates: [  0.750000000000000,  0.750000000000000,  0.671151710000000 ]
    mass: 39.098300
    reduced_to: 73
  - symbol: K  # 85
    coordinates: [  0.250000000000000,  0.000000000000000,  0.171151710000000 ]
    mass: 39.098300
    reduced_to: 85
  - symbol: K  # 86
    coordinates: [  0.750000000000000,  0.000000000000000,  0.171151710000000 ]
    mass: 39.098300
    reduced_to: 85
  - symbol: K  # 87
    coordinates: [  0.250000000000000,  0.500000000000000,  0.171151710000000 ]
    mass: 39.098300
    reduced_to: 85
  - symbol: K  # 88
    coordinates: [  0.750000000000000,  0.500000000000000,  0.171151710000000 ]
    mass: 39.098300
    reduced_to: 85
  - symbol: K  # 89
    coordinates: [  0.250000000000000,  0.000000000000000,  0.504485043333333 ]
    mass: 39.098300
    reduced_to: 85
  - symbol: K  # 90
    coordinates: [  0.750000000000000,  0.000000000000000,  0.504485043333333 ]
    mass: 39.098300
    reduced_to: 85
  - symbol: K  # 91
    coordinates: [  0.250000000000000,  0.500000000000000,  0.504485043333333 ]
    mass: 39.098300
    reduced_to: 85
  - symbol: K  # 92
    coordinates: [  0.750000000000000,  0.500000000000000,  0.504485043333333 ]
    mass: 39.098300
    reduced_to: 85
  - symbol: K  # 93
    coordinates: [  0.250000000000000,  0.000000000000000,  0.837818376666667 ]
    mass: 39.098300
    reduced_to: 85
  - symbol: K  # 94
    coordinates: [  0.750000000000000,  0.000000000000000,  0.837818376666667 ]
    mass: 39.098300
    reduced_to: 85
  - symbol: K  # 95
    coordinates: [  0.250000000000000,  0.500000000000000,  0.837818376666667 ]
    mass: 39.098300
    reduced_to: 85
  - symbol: K  # 96
    coordinates: [  0.750000000000000,  0.500000000000000,  0.837818376666667 ]
    mass: 39.098300
    reduced_to: 85
  - symbol: Nb # 97
    coordinates: [  0.000000000000000,  0.250000000000000,  0.166676733333333 ]
    mass: 92.906380
    reduced_to: 97
  - symbol: Nb # 98
    coordinates: [  0.500000000000000,  0.250000000000000,  0.166676733333333 ]
    mass: 92.906380
    reduced_to: 97
  - symbol: Nb # 99
    coordinates: [  0.000000000000000,  0.750000000000000,  0.166676733333333 ]
    mass: 92.906380
    reduced_to: 97
  - symbol: Nb # 100
    coordinates: [  0.500000000000000,  0.750000000000000,  0.166676733333333 ]
    mass: 92.906380
    reduced_to: 97
  - symbol: Nb # 101
    coordinates: [  0.000000000000000,  0.250000000000000,  0.500010066666667 ]
    mass: 92.906380
    reduced_to: 97
  - symbol: Nb # 102
    coordinates: [  0.500000000000000,  0.250000000000000,  0.500010066666667 ]
    mass: 92.906380
    reduced_to: 97
  - symbol: Nb # 103
    coordinates: [  0.000000000000000,  0.750000000000000,  0.500010066666667 ]
    mass: 92.906380
    reduced_to: 97
  - symbol: Nb # 104
    coordinates: [  0.500000000000000,  0.750000000000000,  0.500010066666667 ]
    mass: 92.906380
    reduced_to: 97
  - symbol: Nb # 105
    coordinates: [  0.000000000000000,  0.250000000000000,  0.833343400000000 ]
    mass: 92.906380
    reduced_to: 97
  - symbol: Nb # 106
    coordinates: [  0.500000000000000,  0.250000000000000,  0.833343400000000 ]
    mass: 92.906380
    reduced_to: 97
  - symbol: Nb # 107
    coordinates: [  0.000000000000000,  0.750000000000000,  0.833343400000000 ]
    mass: 92.906380
    reduced_to: 97
  - symbol: Nb # 108
    coordinates: [  0.500000000000000,  0.750000000000000,  0.833343400000000 ]
    mass: 92.906380
    reduced_to: 97
  - symbol: Nb # 109
    coordinates: [  0.000000000000000,  0.000000000000000,  0.000010066666667 ]
    mass: 92.906380
    reduced_to: 109
  - symbol: Nb # 110
    coordinates: [  0.500000000000000,  0.000000000000000,  0.000010066666667 ]
    mass: 92.906380
    reduced_to: 109
  - symbol: Nb # 111
    coordinates: [  0.000000000000000,  0.500000000000000,  0.000010066666667 ]
    mass: 92.906380
    reduced_to: 109
  - symbol: Nb # 112
    coordinates: [  0.500000000000000,  0.500000000000000,  0.000010066666667 ]
    mass: 92.906380
    reduced_to: 109
  - symbol: Nb # 113
    coordinates: [  0.000000000000000,  0.000000000000000,  0.333343400000000 ]
    mass: 92.906380
    reduced_to: 109
  - symbol: Nb # 114
    coordinates: [  0.500000000000000,  0.000000000000000,  0.333343400000000 ]
    mass: 92.906380
    reduced_to: 109
  - symbol: Nb # 115
    coordinates: [  0.000000000000000,  0.500000000000000,  0.333343400000000 ]
    mass: 92.906380
    reduced_to: 109
  - symbol: Nb # 116
    coordinates: [  0.500000000000000,  0.500000000000000,  0.333343400000000 ]
    mass: 92.906380
    reduced_to: 109
  - symbol: Nb # 117
    coordinates: [  0.000000000000000,  0.000000000000000,  0.666676733333333 ]
    mass: 92.906380
    reduced_to: 109
  - symbol: Nb # 118
    coordinates: [  0.500000000000000,  0.000000000000000,  0.666676733333333 ]
    mass: 92.906380
    reduced_to: 109
  - symbol: Nb # 119
    coordinates: [  0.000000000000000,  0.500000000000000,  0.666676733333333 ]
    mass: 92.906380
    reduced_to: 109
  - symbol: Nb # 120
    coordinates: [  0.500000000000000,  0.500000000000000,  0.666676733333333 ]
    mass: 92.906380
    reduced_to: 109

displacements:
- atom:    1
  displacement:
    [   0.0100000000000000,  0.0000000000000000,  0.0000000000000000 ]
  forces:
  - [  -0.0550575100000000,  0.0004360200000000, -0.0079849400000000 ]
  - [   0.0014259700000000, -0.0001661400000000, -0.0084238600000000 ]
  - [   0.0014262800000000,  0.0004095200000000, -0.0078867400000000 ]
  - [  -0.0002181000000000,  0.0001154400000000, -0.0081553300000000 ]
  - [   0.0001460300000000,  0.0000988900000000, -0.0081916500000000 ]
  - [   0.0001500000000000,  0.0001364300000000, -0.0081205300000000 ]
  - [  -0.0002298100000000,  0.0001195700000000, -0.0081576900000000 ]
  - [   0.0001433100000000,  0.0001767100000000, -0.0081189400000000 ]
  - [   0.0001448000000000,  0.0000630400000000, -0.0081924900000000 ]
  - [  -0.0000831900000000,  0.0001206000000000, -0.0081605000000000 ]
  - [   0.0001506400000000,  0.0000684800000000, -0.0081529100000000 ]
  - [   0.0001544500000000,  0.0001694200000000, -0.0081632100000000 ]
  - [  -0.0024344300000000, -0.0000951500000000, -0.0081603300000000 ]
  - [   0.0006414000000000, -0.0011079500000000, -0.0076299400000000 ]
  - [   0.0006391300000000,  0.0008543900000000, -0.0086697300000000 ]
  - [  -0.0033951800000000, -0.0001754700000000, -0.0081269200000000 ]
  - [   0.0007253000000000,  0.0008914900000000, -0.0087956100000000 ]
  - [   0.0007268500000000, -0.0011241100000000, -0.0075176700000000 ]
  - [  -0.0002299900000000, -0.0001224100000000, -0.0081526900000000 ]
  - [   0.0001082700000000, -0.0002445500000000, -0.0081142200000000 ]
  - [   0.0001103000000000,  0.0000031800000000, -0.0081972900000000 ]
  - [  -0.0002730200000000, -0.0001172700000000, -0.0081611300000000 ]
  - [   0.0001158100000000, -0.0000349400000000, -0.0081507200000000 ]
  - [   0.0001188300000000, -0.0002025400000000, -0.0081617700000000 ]
  - [   0.0081370400000000, -0.0070512400000000, -0.0138556200000000 ]
  - [   0.0042542400000000, -0.0000045300000000, -0.0063688700000000 ]
  - [   0.0080333000000000,  0.0069250500000000,  0.0009954700000000 ]
  - [  -0.0006271300000000,  0.0003363000000000, -0.0064571700000000 ]
  - [   0.0011996200000000, -0.0000010100000000, -0.0063672100000000 ]
  - [  -0.0006098400000000, -0.0003364300000000, -0.0062738400000000 ]
  - [  -0.0006973400000000, -0.0000231800000000, -0.0061167100000000 ]
  - [   0.0012992300000000, -0.0000004200000000, -0.0063669600000000 ]
  - [  -0.0006816900000000,  0.0000216900000000, -0.0066159000000000 ]
  - [  -0.0005606900000000,  0.0000798100000000, -0.0063252100000000 ]
  - [   0.0013846600000000,  0.0000008100000000, -0.0063674200000000 ]
  - [  -0.0005294200000000, -0.0000823300000000, -0.0064140700000000 ]
  - [   0.0009697000000000,  0.0001797600000000, -0.0081077000000000 ]
  - [   0.0010091400000000, -0.0012601400000000, -0.0094581100000000 ]
  - [   0.0009978700000000,  0.0014763800000000, -0.0068783000000000 ]
  - [  -0.0007286400000000,  0.0001228200000000, -0.0081514100000000 ]
  - [   0.0004194400000000,  0.0005584000000000, -0.0083736400000000 ]
  - [   0.0004179400000000, -0.0003138400000000, -0.0079374200000000 ]
  - [  -0.0007280800000000,  0.0001211100000000, -0.0081520500000000 ]
  - [   0.0004194800000000, -0.0000593900000000, -0.0077737500000000 ]
  - [   0.0004175100000000,  0.0002976900000000, -0.0085306800000000 ]
  - [   0.0009708200000000,  0.0000532600000000, -0.0082294800000000 ]
  - [   0.0010031000000000,  0.0016096300000000, -0.0066362000000000 ]
  - [   0.0010031700000000, -0.0013558400000000, -0.0096625000000000 ]
  - [  -0.0026795600000000, -0.0001267100000000, -0.0081358100000000 ]
  - [   0.0006704600000000,  0.0003126600000000, -0.0089852900000000 ]
  - [   0.0006667900000000, -0.0005421100000000, -0.0073376500000000 ]
  - [  -0.0002547700000000, -0.0001180700000000, -0.0081532500000000 ]
  - [   0.0001164700000000, -0.0000375000000000, -0.0082976200000000 ]
  - [   0.0001191000000000, -0.0002039900000000, -0.0080130200000000 ]
  - [  -0.0026792200000000, -0.0000987600000000, -0.0081993000000000 ]
  - [   0.0006681800000000, -0.0008086400000000, -0.0071067900000000 ]
  - [   0.0006687200000000,  0.0005661100000000, -0.0091966700000000 ]
  - [  -0.0002540000000000, -0.0001268200000000, -0.0081522800000000 ]
  - [   0.0001151000000000, -0.0000793700000000, -0.0080971800000000 ]
  - [   0.0001196400000000, -0.0001621300000000, -0.0082107200000000 ]
  - [  -0.0003593500000000, -0.0001687000000000, -0.0066069400000000 ]
  - [   0.0011365000000000, -0.0000015400000000, -0.0063703600000000 ]
  - [  -0.0003354700000000,  0.0001696800000000, -0.0061285600000000 ]
  - [  -0.0005606600000000,  0.0000303100000000, -0.0067939200000000 ]
  - [   0.0010495500000000,  0.0000002800000000, -0.0063678300000000 ]
  - [  -0.0005478100000000, -0.0000296400000000, -0.0059448500000000 ]
  - [  -0.0006260500000000, -0.0003464700000000, -0.0063847200000000 ]
  - [   0.0012116200000000, -0.0000009200000000, -0.0063659300000000 ]
  - [  -0.0006095800000000,  0.0003405500000000, -0.0063467900000000 ]
  - [   0.0105534500000000,  0.0084698700000000,  0.0016628200000000 ]
  - [   0.0047784400000000,  0.0000011700000000, -0.0063664800000000 ]
  - [   0.0105141700000000, -0.0083577500000000, -0.0142931800000000 ]
  - [   0.0002020300000000, -0.0000023900000000,  0.0007122200000000 ]
  - [  -0.0003407900000000, -0.0000003600000000,  0.0003595400000000 ]
  - [   0.0001942800000000,  0.0000033900000000,  0.0000061300000000 ]
  - [   0.0000978900000000, -0.0000418100000000,  0.0003987900000000 ]
  - [  -0.0001852100000000, -0.0000002700000000,  0.0003577500000000 ]
  - [   0.0000939300000000,  0.0000403800000000,  0.0003181000000000 ]
  - [   0.0024544900000000, -0.0004246900000000,  0.0009649600000000 ]
  - [  -0.0005819400000000,  0.0000002000000000,  0.0003563200000000 ]
  - [   0.0023384300000000,  0.0003256600000000, -0.0001651600000000 ]
  - [   0.0001896600000000, -0.0004903100000000,  0.0003548100000000 ]
  - [  -0.0003481100000000, -0.0000007700000000,  0.0003572000000000 ]
  - [   0.0001797200000000,  0.0004929100000000,  0.0003590200000000 ]
  - [   0.0002079300000000,  0.0003736000000000,  0.0003505000000000 ]
  - [  -0.0003278900000000,  0.0000017200000000,  0.0003570300000000 ]
  - [   0.0002001600000000, -0.0003701200000000,  0.0003661600000000 ]
  - [   0.0009397500000000, -0.0002208700000000,  0.0008846900000000 ]
  - [  -0.0006264600000000, -0.0000015500000000,  0.0003577100000000 ]
  - [   0.0008678000000000,  0.0002684700000000, -0.0002294000000000 ]
  - [   0.0001015000000000,  0.0000517000000000,  0.0002982400000000 ]
  - [  -0.0001954000000000,  0.0000002000000000,  0.0003574500000000 ]
  - [   0.0000974300000000, -0.0000497300000000,  0.0004154000000000 ]
  - [   0.0001749900000000, -0.0000108900000000, -0.0001361400000000 ]
  - [  -0.0002967100000000, -0.0000002900000000,  0.0003570800000000 ]
  - [   0.0001676900000000,  0.0000080000000000,  0.0008526300000000 ]
  - [   0.0142760200000000,  0.0000881800000000,  0.0224365100000000 ]
  - [  -0.0080054200000000,  0.0013464400000000,  0.0237672700000000 ]
  - [  -0.0079503000000000, -0.0013279300000000,  0.0208915600000000 ]
  - [   0.0016489800000000,  0.0000128400000000,  0.0223000400000000 ]
  - [  -0.0007884200000000, -0.0010428800000000,  0.0227818500000000 ]
  - [  -0.0008001200000000,  0.0010320400000000,  0.0218602300000000 ]
  - [   0.0017699500000000, -0.0000185100000000,  0.0223292500000000 ]
  - [  -0.0008308500000000,  0.0005048400000000,  0.0211584900000000 ]
  - [  -0.0008404300000000, -0.0005053200000000,  0.0234735500000000 ]
  - [   0.0010703500000000,  0.0000279100000000,  0.0223462500000000 ]
  - [  -0.0006473200000000, -0.0009716900000000,  0.0213686700000000 ]
  - [  -0.0006698200000000,  0.0009657600000000,  0.0232664200000000 ]
  - [   0.0011673200000000, -0.0000111400000000,  0.0223050200000000 ]
  - [  -0.0006147500000000,  0.0008108200000000,  0.0231134600000000 ]
  - [  -0.0006330800000000, -0.0007917600000000,  0.0215420200000000 ]
  - [   0.0015342800000000, -0.0000007500000000,  0.0223238900000000 ]
  - [  -0.0007577700000000, -0.0004669900000000,  0.0230541100000000 ]
  - [  -0.0007657700000000,  0.0004548200000000,  0.0216010100000000 ]
  - [   0.0017139700000000,  0.0000026100000000,  0.0223250600000000 ]
  - [  -0.0008447500000000,  0.0009740700000000,  0.0217965300000000 ]
  - [  -0.0008526300000000, -0.0009566300000000,  0.0228367200000000 ]
  - [   0.0210798600000000, -0.0003179800000000,  0.0220392700000000 ]
  - [  -0.0100708500000000, -0.0006194500000000,  0.0220921000000000 ]
  - [  -0.0100548800000000,  0.0006099800000000,  0.0225435500000000 ]
- atom:    1
  displacement:
    [   0.0000000000000000,  0.0100000000000000,  0.0000000000000000 ]
  forces:
  - [   0.0000000000000000, -0.1587861100000000, -0.1046661200000000 ]
  - [   0.0002843200000000, -0.0055998200000000, -0.0129977500000000 ]
  - [  -0.0002843200000000, -0.0055998200000000, -0.0129977500000000 ]
  - [   0.0000000000000000,  0.0086999100000000, -0.0055211700000000 ]
  - [   0.0000194600000000,  0.0017487700000000, -0.0075809500000000 ]
  - [  -0.0000194600000000,  0.0017487700000000, -0.0075809500000000 ]