phonopy:
  version: 2.4.0
  frequency_unit_conversion_factor: 15.633302
  symmetry_tolerance: 1.00000e-05
  nac_unit_conversion_factor: 14.400000
  configuration:
    atom_name: "Si O"
    dim: "2 2 2"
    mp: "8 8 8"
    eigenvectors: ".true."
    nac: ".true."

physical_unit:
  atomic_mass: "AMU"
  length: "Angstrom"
  force_constants: "eV/Angstrom^2"

supercell_matrix:
- [   2,   0,   0 ]
- [   0,   2,   0 ]
- [   0,   0,   2 ]

space_group:
  type: "Fm-3m"
  number: 225
  Hall_symbol: "-F 4 2 3"

primitive_cell:
  lattice:
  - [     5.690301476175671,     0.000000000000000,     0.000000000000000 ] # a
  - [     0.000000000000000,     5.690301476175671,     0.000000000000000 ] # b
  - [     0.000000000000000,     0.000000000000000,     5.690301476175671 ] # c
  points:
  - symbol: Na # 1
    coordinates: [  0.000000000000000,  0.000000000000000,  0.000000000000000 ]
    mass: 22.989769
  - symbol: Na # 2
    coordinates: [  0.000000000000000,  0.500000000000000,  0.500000000000000 ]
    mass: 22.989769
  - symbol: Na # 3
    coordinates: [  0.500000000000000,  0.000000000000000,  0.500000000000000 ]
    mass: 22.989769
  - symbol: Na # 4
    coordinates: [  0.500000000000000,  0.500000000000000,  0.000000000000000 ]
    mass: 22.989769
  - symbol: Cl # 5
    coordinates: [  0.500000000000000,  0.500000000000000,  0.500000000000000 ]
    mass: 35.453000
  - symbol: Cl # 6
    coordinates: [  0.500000000000000,  0.000000000000000,  0.000000000000000 ]
    mass: 35.453000
  - symbol: Cl # 7
    coordinates: [  0.000000000000000,  0.500000000000000,  0.000000000000000 ]
    mass: 35.453000
  - symbol: Cl # 8
    coordinates: [  0.000000000000000,  0.000000000000000,  0.500000000000000 ]
    mass: 35.453000
  reciprocal_lattice: # without 2pi
  - [     0.175737613233118,     0.000000000000000,     0.000000000000000 ] # a*
  - [     0.000000000000000,     0.175737613233118,     0.000000000000000 ] # b*
  - [     0.000000000000000,     0.000000000000000,     0.175737613233118 ] # c*

unit_cell:
  lattice:
  - [     5.690301476175671,     0.000000000000000,     0.000000000000000 ] # a
  - [     0.000000000000000,     5.690301476175671,     0.000000000000000 ] # b
  - [     0.000000000000000,     0.000000000000000,     5.690301476175671 ] # c
  points:
  - symbol: Na # 1
    coordinates: [  0.000000000000000,  0.000000000000000,  0.000000000000000 ]
    mass: 22.989769
    reduced_to: 1
  - symbol: Na # 2
    coordinates: [  0.000000000000000,  0.500000000000000,  0.500000000000000 ]
    mass: 22.989769
    reduced_to: 2
  - symbol: Na # 3
    coordinates: [  0.500000000000000,  0.000000000000000,  0.500000000000000 ]
    mass: 22.989769
    reduced_to: 3
  - symbol: Na # 4
    coordinates: [  0.500000000000000,  0.500000000000000,  0.000000000000000 ]
    mass: 22.989769
    reduced_to: 4
  - symbol: Cl # 5
    coordinates: [  0.500000000000000,  0.500000000000000,  0.500000000000000 ]
    mass: 35.453000
    reduced_to: 5
  - symbol: Cl # 6
    coordinates: [  0.500000000000000,  0.000000000000000,  0.000000000000000 ]
    mass: 35.453000
    reduced_to: 6
  - symbol: Cl # 7
    coordinates: [  0.000000000000000,  0.500000000000000,  0.000000000000000 ]
    mass: 35.453000
    reduced_to: 7
  - symbol: Cl # 8
    coordinates: [  0.000000000000000,  0.000000000000000,  0.500000000000000 ]
    mass: 35.453000
    reduced_to: 8

supercell:
  lattice:
  - [    11.380602952351342,     0.000000000000000,     0.000000000000000 ] # a
  - [     0.000000000000000,    11.380602952351342,     0.000000000000000 ] # b
  - [     0.000000000000000,     0.000000000000000,    11.380602952351342 ] # c
  points:
  - symbol: Na # 1
    coordinates: [  0.000000000000000,  0.000000000000000,  0.000000000000000 ]
    mass: 22.989769
    reduced_to: 1
  - symbol: Na # 2
    coordinates: [  0.500000000000000,  0.000000000000000,  0.000000000000000 ]
    mass: 22.989769
    reduced_to: 1
  - symbol: Na # 3
    coordinates: [  0.000000000000000,  0.500000000000000,  0.000000000000000 ]
    mass: 22.989769
    reduced_to: 1
  - symbol: Na # 4
    coordinates: [  0.500000000000000,  0.500000000000000,  0.000000000000000 ]
    mass: 22.989769
    reduced_to: 1
  - symbol: Na # 5
    coordinates: [  0.000000000000000,  0.000000000000000,  0.500000000000000 ]
    mass: 22.989769
    reduced_to: 1
  - symbol: Na # 6
    coordinates: [  0.500000000000000,  0.000000000000000,  0.500000000000000 ]
    mass: 22.989769
    reduced_to: 1
  - symbol: Na # 7
    coordinates: [  0.000000000000000,  0.500000000000000,  0.500000000000000 ]
    mass: 22.989769
    reduced_to: 1
  - symbol: Na # 8
    coordinates: [  0.500000000000000,  0.500000000000000,  0.500000000000000 ]
    mass: 22.989769
    reduced_to: 1
  - symbol: Na # 9
    coordinates: [  0.000000000000000,  0.250000000000000,  0.250000000000000 ]
    mass: 22.989769
    reduced_to: 9
  - symbol: Na # 10
    coordinates: [  0.500000000000000,  0.250000000000000,  0.250000000000000 ]
    mass: 22.989769
    reduced_to: 9
  - symbol: Na # 11
    coordinates: [  0.000000000000000,  0.750000000000000,  0.250000000000000 ]
    mass: 22.989769
    reduced_to: 9
  - symbol: Na # 12
    coordinates: [  0.500000000000000,  0.750000000000000,  0.250000000000000 ]
    mass: 22.989769
    reduced_to: 9
  - symbol: Na # 13
    coordinates: [  0.000000000000000,  0.250000000000000,  0.750000000000000 ]
    mass: 22.989769
    reduced_to: 9
  - symbol: Na # 14
    coordinates: [  0.500000000000000,  0.250000000000000,  0.750000000000000 ]
    mass: 22.989769
    reduced_to: 9
  - symbol: Na # 15
    coordinates: [  0.000000000000000,  0.750000000000000,  0.750000000000000 ]
    mass: 22.989769
    reduced_to: 9
  - symbol: Na # 16
    coordinates: [  0.500000000000000,  0.750000000000000,  0.750000000000000 ]
    mass: 22.989769
    reduced_to: 9
  - symbol: Na # 17
    coordinates: [  0.250000000000000,  0.000000000000000,  0.250000000000000 ]
    mass: 22.989769
    reduced_to: 17
  - symbol: Na # 18
    coordinates: [  0.750000000000000,  0.000000000000000,  0.250000000000000 ]
    mass: 22.989769
    reduced_to: 17
  - symbol: Na # 19
    coordinates: [  0.250000000000000,  0.500000000000000,  0.250000000000000 ]
    mass: 22.989769
    reduced_to: 17
  - symbol: Na # 20
    coordinates: [  0.750000000000000,  0.500000000000000,  0.250000000000000 ]
    mass: 22.989769
    reduced_to: 17
  - symbol: Na # 21
    coordinates: [  0.250000000000000,  0.000000000000000,  0.750000000000000 ]
    mass: 22.989769
    reduced_to: 17
  - symbol: Na # 22
    coordinates: [  0.750000000000000,  0.000000000000000,  0.750000000000000 ]
    mass: 22.989769
    reduced_to: 17
  - symbol: Na # 23
    coordinates: [  0.250000000000000,  0.500000000000000,  0.750000000000000 ]
    mass: 22.989769
    reduced_to: 17
  - symbol: Na # 24
    coordinates: [  0.750000000000000,  0.500000000000000,  0.750000000000000 ]
    mass: 22.989769
    reduced_to: 17
  - symbol: Na # 25
    coordinates: [  0.250000000000000,  0.250000000000000,  0.000000000000000 ]
    mass: 22.989769
    reduced_to: 25
  - symbol: Na # 26
    coordinates: [  0.750000000000000,  0.250000000000000,  0.000000000000000 ]
    mass: 22.989769
    reduced_to: 25
  - symbol: Na # 27
    coordinates: [  0.250000000000000,  0.750000000000000,  0.000000000000000 ]
    mass: 22.989769
    reduced_to: 25
  - symbol: Na # 28
    coordinates: [  0.750000000000000,  0.750000000000000,  0.000000000000000 ]
    mass: 22.989769
    reduced_to: 25
  - symbol: Na # 29
    coordinates: [  0.250000000000000,  0.250000000000000,  0.500000000000000 ]
    mass: 22.989769
    reduced_to: 25
  - symbol: Na # 30
    coordinates: [  0.750000000000000,  0.250000000000000,  0.500000000000000 ]
    mass: 22.989769
    reduced_to: 25
  - symbol: Na # 31
    coordinates: [  0.250000000000000,  0.750000000000000,  0.500000000000000 ]
    mass: 22.989769
    reduced_to: 25
  - symbol: Na # 32
    coordinates: [  0.750000000000000,  0.750000000000000,  0.500000000000000 ]
    mass: 22.989769
    reduced_to: 25
  - symbol: Cl # 33
    coordinates: [  0.250000000000000,  0.250000000000000,  0.250000000000000 ]
    mass: 35.453000
    reduced_to: 33
  - symbol: Cl # 34
    coordinates: [  0.750000000000000,  0.250000000000000,  0.250000000000000 ]
    mass: 35.453000
    reduced_to: 33
  - symbol: Cl # 35
    coordinates: [  0.250000000000000,  0.750000000000000,  0.250000000000000 ]
    mass: 35.453000
    reduced_to: 33
  - symbol: Cl # 36
    coordinates: [  0.750000000000000,  0.750000000000000,  0.250000000000000 ]
    mass: 35.453000
    reduced_to: 33
  - symbol: Cl # 37
    coordinates: [  0.250000000000000,  0.250000000000000,  0.750000000000000 ]
    mass: 35.453000
    reduced_to: 33
  - symbol: Cl # 38
    coordinates: [  0.750000000000000,  0.250000000000000,  0.750000000000000 ]
    mass: 35.453000
    reduced_to: 33
  - symbol: Cl # 39
    coordinates: [  0.250000000000000,  0.750000000000000,  0.750000000000000 ]
    mass: 35.453000
    reduced_to: 33
  - symbol: Cl # 40
    coordinates: [  0.750000000000000,  0.750000000000000,  0.750000000000000 ]
    mass: 35.453000
    reduced_to: 33
  - symbol: Cl # 41
    coordinates: [  0.250000000000000,  0.000000000000000,  0.000000000000000 ]
    mass: 35.453000
    reduced_to: 41
  - symbol: Cl # 42
    coordinates: [  0.750000000000000,  0.000000000000000,  0.000000000000000 ]
    mass: 35.453000
    reduced_to: 41
  - symbol: Cl # 43
    coordinates: [  0.250000000000000,  0.500000000000000,  0.000000000000000 ]
    mass: 35.453000
    reduced_to: 41
  - symbol: Cl # 44
    coordinates: [  0.750000000000000,  0.500000000000000,  0.000000000000000 ]
    mass: 35.453000
    reduced_to: 41
  - symbol: Cl # 45
    coordinates: [  0.250000000000000,  0.000000000000000,  0.500000000000000 ]
    mass: 35.453000
    reduced_to: 41
  - symbol: Cl # 46
    coordinates: [  0.750000000000000,  0.000000000000000,  0.500000000000000 ]
    mass: 35.453000
    reduced_to: 41
  - symbol: Cl # 47
    coordinates: [  0.250000000000000,  0.500000000000000,  0.500000000000000 ]
    mass: 35.453000
    reduced_to: 41
  - symbol: Cl # 48
    coordinates: [  0.750000000000000,  0.500000000000000,  0.500000000000000 ]
    mass: 35.453000
    reduced_to: 41
  - symbol: Cl # 49
    coordinates: [  0.000000000000000,  0.250000000000000,  0.000000000000000 ]
    mass: 35.453000
    reduced_to: 49
  - symbol: Cl # 50
    coordinates: [  0.500000000000000,  0.250000000000000,  0.000000000000000 ]
    mass: 35.453000
    reduced_to: 49
  - symbol: Cl # 51
    coordinates: [  0.000000000000000,  0.750000000000000,  0.000000000000000 ]
    mass: 35.453000
    reduced_to: 49
  - symbol: Cl # 52
    coordinates: [  0.500000000000000,  0.750000000000000,  0.000000000000000 ]
    mass: 35.453000
    reduced_to: 49
  - symbol: Cl # 53
    coordinates: [  0.000000000000000,  0.250000000000000,  0.500000000000000 ]
    mass: 35.453000
    reduced_to: 49
  - symbol: Cl # 54
    coordinates: [  0.500000000000000,  0.250000000000000,  0.500000000000000 ]
    mass: 35.453000
    reduced_to: 49
  - symbol: Cl # 55
    coordinates: [  0.000000000000000,  0.750000000000000,  0.500000000000000 ]
    mass: 35.453000
    reduced_to: 49
  - symbol: Cl # 56
    coordinates: [  0.500000000000000,  0.750000000000000,  0.500000000000000 ]
    mass: 35.453000
    reduced_to: 49
  - symbol: Cl # 57
    coordinates: [  0.000000000000000,  0.000000000000000,  0.250000000000000 ]
    mass: 35.453000
    reduced_to: 57
  - symbol: Cl # 58
    coordinates: [  0.500000000000000,  0.000000000000000,  0.250000000000000 ]
    mass: 35.453000
    reduced_to: 57
  - symbol: Cl # 59
    coordinates: [  0.000000000000000,  0.500000000000000,  0.250000000000000 ]
    mass: 35.453000
    reduced_to: 57
  - symbol: Cl # 60
    coordinates: [  0.500000000000000,  0.500000000000000,  0.250000000000000 ]
    mass: 35.453000
    reduced_to: 57
  - symbol: Cl # 61
    coordinates: [  0.000000000000000,  0.000000000000000,  0.750000000000000 ]
    mass: 35.453000
    reduced_to: 57
  - symbol: Cl # 62
    coordinates: [  0.500000000000000,  0.000000000000000,  0.750000000000000 ]
    mass: 35.453000
    reduced_to: 57
  - symbol: Cl # 63
    coordinates: [  0.000000000000000,  0.500000000000000,  0.750000000000000 ]
    mass: 35.453000
    reduced_to: 57
  - symbol: Cl # 64
    coordinates: [  0.500000000000000,  0.500000000000000,  0.750000000000000 ]
    mass: 35.453000
    reduced_to: 57

born_effective_charge:
- # 1 (Na)
  - [  1.086875000000000,  0.000000000000000,  0.000000000000000 ]
  - [  0.000000000000000,  1.086875000000000,  0.000000000000000 ]
  - [  0.000000000000000,  0.000000000000000,  1.086875000000000 ]
- # 2 (Na)
  - [  1.086875000000000,  0.000000000000000,  0.000000000000000 ]
  - [  0.000000000000000,  1.086875000000000,  0.000000000000000 ]
  - [  0.000000000000000,  0.000000000000000,  1.086875000000000 ]
- # 3 (Na)
  - [  1.086875000000000,  0.000000000000000,  0.000000000000000 ]
  - [  0.000000000000000,  1.086875000000000,  0.000000000000000 ]
  - [  0.000000000000000,  0.000000000000000,  1.086875000000000 ]
- # 4 (Na)
  - [  1.086875000000000,  0.000000000000000,  0.000000000000000 ]
  - [  0.000000000000000,  1.086875000000000,  0.000000000000000 ]
  - [  0.000000000000000,  0.000000000000000,  1.086875000000000 ]
- # 5 (Cl)
  - [ -1.086875000000000,  0.000000000000000,  0.000000000000000 ]
  - [  0.000000000000000, -1.086875000000000,  0.000000000000000 ]
  - [  0.000000000000000,  0.000000000000000, -1.086875000000000 ]
- # 6 (Cl)
  - [ -1.086875000000000,  0.000000000000000,  0.000000000000000 ]
  - [  0.000000000000000, -1.086875000000000,  0.000000000000000 ]
  - [  0.000000000000000,  0.000000000000000, -1.086875000000000 ]
- # 7 (Cl)
  - [ -1.086875000000000,  0.000000000000000,  0.000000000000000 ]
  - [  0.000000000000000, -1.086875000000000,  0.000000000000000 ]
  - [  0.000000000000000,  0.000000000000000, -1.086875000000000 ]
- # 8 (Cl)
  - [ -1.086875000000000,  0.000000000000000,  0.000000000000000 ]
  - [  0.000000000000000, -1.086875000000000,  0.000000000000000 ]
  - [  0.000000000000000,  0.000000000000000, -1.086875000000000 ]

dielectric_constant:
  - [  2.435339670000000,  0.000000000000000,  0.000000000000000 ]
  - [  0.000000000000000,  2.435339670000000,  0.000000000000000 ]
  - [  0.000000000000000,  0.000000000000000,  2.435339670000000 ]

displacements:
- atom:    1
  displacement:
    [   0.0100000000000000,  0.0000000000000000,  0.0000000000000000 ]
  forces:
  - [  -0.0180619400000000,  0.0000000000000000,  0.0000000000000000 ]
  - [   0.0030240400000000,  0.0000000000000000,  0.0000000000000000 ]
  - [  -0.0000434000000000,  0.0000000000000000,  0.0000000000000000 ]
  - [   0.0001066900000000,  0.0000000000000000,  0.0000000000000000 ]
  - [  -0.0000434000000000,  0.0000000000000000,  0.0000000000000000 ]
  - [   0.0001066900000000,  0.0000000000000000,  0.0000000000000000 ]
  - [  -0.0001589900000000,  0.0000000000000000,  0.0000000000000000 ]
  - [   0.0001344200000000,  0.0000000000000000,  0.0000000000000000 ]
  - [  -0.0005716800000000, -0.0000021200000000, -0.0000021200000000 ]
  - [   0.0003817600000000,  0.0000002400000000,  0.0000002400000000 ]
  - [  -0.0005716800000000,  0.0000021200000000, -0.0000021200000000 ]
  - [   0.0003817600000000, -0.0000002400000000,  0.0000002400000000 ]
  - [  -0.0005716800000000, -0.0000021200000000,  0.0000021200000000 ]
  - [   0.0003817600000000,  0.0000002400000000, -0.0000002400000000 ]
  - [  -0.0005716800000000,  0.0000021200000000,  0.0000021200000000 ]
  - [   0.0003817600000000, -0.0000002400000000, -0.0000002400000000 ]
  - [   0.0004845700000000,  0.0000000000000000,  0.0019354900000000 ]
  - [   0.0004850100000000,  0.0000000000000000, -0.0019214300000000 ]
  - [  -0.0000183800000000,  0.0000000000000000, -0.0000178800000000 ]
  - [  -0.0000173700000000,  0.0000000000000000,  0.0000170400000000 ]
  - [   0.0004845700000000,  0.0000000000000000, -0.0019354900000000 ]
  - [   0.0004850100000000,  0.0000000000000000,  0.0019214300000000 ]
  - [  -0.0000183800000000,  0.0000000000000000,  0.0000178800000000 ]
  - [  -0.0000173700000000,  0.0000000000000000, -0.0000170400000000 ]
  - [   0.0004845700000000,  0.0019354900000000,  0.0000000000000000 ]
  - [   0.0004850100000000, -0.0019214300000000,  0.0000000000000000 ]
  - [   0.0004845700000000, -0.0019354900000000,  0.0000000000000000 ]
  - [   0.0004850100000000,  0.0019214300000000,  0.0000000000000000 ]
  - [  -0.0000183800000000, -0.0000178800000000,  0.0000000000000000 ]
  - [  -0.0000173700000000,  0.0000170400000000,  0.0000000000000000 ]
  - [  -0.0000183800000000,  0.0000178800000000,  0.0000000000000000 ]
  - [  -0.0000173700000000, -0.0000170400000000,  0.0000000000000000 ]
  - [  -0.0000810800000000, -0.0004282000000000, -0.0004282000000000 ]
  - [  -0.0000835100000000,  0.0004258800000000,  0.0004258800000000 ]
  - [  -0.0000810800000000,  0.0004282000000000, -0.0004282000000000 ]
  - [  -0.0000835100000000, -0.0004258800000000,  0.0004258800000000 ]
  - [  -0.0000810800000000, -0.0004282000000000,  0.0004282000000000 ]
  - [  -0.0000835100000000,  0.0004258800000000, -0.0004258800000000 ]
  - [  -0.0000810800000000,  0.0004282000000000,  0.0004282000000000 ]
  - [  -0.0000835100000000, -0.0004258800000000, -0.0004258800000000 ]
  - [   0.0050201700000000,  0.0000000000000000,  0.0000000000000000 ]
  - [   0.0046140400000000,  0.0000000000000000,  0.0000000000000000 ]
  - [   0.0000408300000000,  0.0000000000000000,  0.0000000000000000 ]
  - [   0.0000373700000000,  0.0000000000000000,  0.0000000000000000 ]
  - [   0.0000408300000000,  0.0000000000000000,  0.0000000000000000 ]
  - [   0.0000373700000000,  0.0000000000000000,  0.0000000000000000 ]
  - [  -0.0000105300000000,  0.0000000000000000,  0.0000000000000000 ]
  - [  -0.0000118000000000,  0.0000000000000000,  0.0000000000000000 ]
  - [   0.0017148800000000, -0.0000110200000000,  0.0000000000000000 ]
  - [  -0.0009600300000000, -0.0000013600000000,  0.0000000000000000 ]
  - [   0.0017148800000000,  0.0000110200000000,  0.0000000000000000 ]
  - [  -0.0009600300000000,  0.0000013600000000,  0.0000000000000000 ]
  - [   0.0001936100000000,  0.0000011800000000,  0.0000000000000000 ]
  - [  -0.0002359000000000,  0.0000000900000000,  0.0000000000000000 ]
  - [   0.0001936100000000, -0.0000011800000000,  0.0000000000000000 ]
  - [  -0.0002359000000000, -0.0000000900000000,  0.0000000000000000 ]
  - [   0.0017148800000000,  0.0000000000000000, -0.0000110200000000 ]
  - [  -0.0009600300000000,  0.0000000000000000, -0.0000013600000000 ]
  - [   0.0001936100000000,  0.0000000000000000,  0.0000011800000000 ]
  - [  -0.0002359000000000,  0.0000000000000000,  0.0000000900000000 ]
  - [   0.0017148800000000,  0.0000000000000000,  0.0000110200000000 ]
  - [  -0.0009600300000000,  0.0000000000000000,  0.0000013600000000 ]
  - [   0.0001936100000000,  0.0000000000000000, -0.0000011800000000 ]
  - [  -0.0002359000000000,  0.0000000000000000, -0.0000000900000000 ]
- atom:   33
  displacement:
    [   0.0100000000000000,  0.0000000000000000,  0.0000000000000000 ]
  forces:
  - [  -0.0000721800000000, -0.0004247300000000, -0.0004247300000000 ]
  - [  -0.0000667600000000,  0.0004272300000000,  0.0004272300000000 ]
  - [  -0.0000721800000000,  0.0004247300000000, -0.0004247300000000 ]
  - [  -0.0000667600000000, -0.0004272300000000,  0.0004272300000000 ]
  - [  -0.0000721800000000, -0.0004247300000000,  0.0004247300000000 ]
  - [  -0.0000667600000000,  0.0004272300000000, -0.0004272300000000 ]
  - [  -0.0000721800000000,  0.0004247300000000,  0.0004247300000000 ]
  - [  -0.0000667600000000, -0.0004272300000000, -0.0004272300000000 ]
  - [   0.0046345100000000,  0.0000000000000000,  0.0000000000000000 ]
  - [   0.0050314800000000,  0.0000000000000000,  0.0000000000000000 ]
  - [   0.0000499300000000,  0.0000000000000000,  0.0000000000000000 ]
  - [   0.0000510900000000,  0.0000000000000000,  0.0000000000000000 ]
  - [   0.0000499300000000,  0.0000000000000000,  0.0000000000000000 ]
  - [   0.0000510900000000,  0.0000000000000000,  0.0000000000000000 ]
  - [  -0.0000030400000000,  0.0000000000000000,  0.0000000000000000 ]
  - [   0.0000012000000000,  0.0000000000000000,  0.0000000000000000 ]
  - [   0.0017234100000000,  0.0000077800000000,  0.0000000000000000 ]
  - [  -0.0009445700000000, -0.0000004700000000,  0.0000000000000000 ]
  - [   0.0017234100000000, -0.0000077800000000,  0.0000000000000000 ]
  - [  -0.0009445700000000,  0.0000004700000000,  0.0000000000000000 ]
  - [   0.0002042400000000,  0.0000019500000000,  0.0000000000000000 ]
  - [  -0.0002202400000000, -0.0000015500000000,  0.0000000000000000 ]
  - [   0.0002042400000000, -0.0000019500000000,  0.0000000000000000 ]
  - [  -0.0002202400000000,  0.0000015500000000,  0.0000000000000000 ]
  - [   0.0017234100000000,  0.0000000000000000,  0.0000077800000000 ]
  - [  -0.0009445700000000,  0.0000000000000000, -0.0000004700000000 ]
  - [   0.0002042400000000,  0.0000000000000000,  0.0000019500000000 ]
  - [  -0.0002202400000000,  0.0000000000000000, -0.0000015500000000 ]
  - [   0.0017234100000000,  0.0000000000000000, -0.0000077800000000 ]
  - [  -0.0009445700000000,  0.0000000000000000,  0.0000004700000000 ]
  - [   0.0002042400000000,  0.0000000000000000, -0.0000019500000000 ]
  - [  -0.0002202400000000,  0.0000000000000000,  0.0000015500000000 ]
  - [  -0.0236731700000000,  0.0000000000000000,  0.0000000000000000 ]
  - [   0.0013201600000000,  0.0000000000000000,  0.0000000000000000 ]
  - [  -0.0005159800000000,  0.0000000000000000,  0.0000000000000000 ]
  - [   0.0006463500000000,  0.0000000000000000,  0.0000000000000000 ]
  - [  -0.0005159800000000,  0.0000000000000000,  0.0000000000000000 ]
  - [   0.0006463500000000,  0.0000000000000000,  0.0000000000000000 ]
  - [  -0.0001691500000000,  0.0000000000000000,  0.0000000000000000 ]
  - [   0.0001742700000000,  0.0000000000000000,  0.0000000000000000 ]
  - [  -0.0008016000000000,  0.0000039800000000,  0.0000039800000000 ]
  - [   0.0005170500000000, -0.0000010700000000, -0.0000010700000000 ]
  - [  -0.0008016000000000, -0.0000039800000000,  0.0000039800000000 ]
  - [   0.0005170500000000,  0.0000010700000000, -0.0000010700000000 ]
  - [  -0.0008016000000000,  0.0000039800000000, -0.0000039800000000 ]
  - [   0.0005170500000000, -0.0000010700000000,  0.0000010700000000 ]
  - [  -0.0008016000000000, -0.0000039800000000, -0.0000039800000000 ]
  - [   0.0005170500000000,  0.0000010700000000,  0.0000010700000000 ]
  - [   0.0013674700000000,  0.0000000000000000,  0.0020506700000000 ]
  - [   0.0013743700000000,  0.0000000000000000, -0.0020695000000000 ]
  - [  -0.0000146100000000,  0.0000000000000000,  0.0001925900000000 ]
  - [  -0.0000113300000000,  0.0000000000000000, -0.0001898400000000 ]
  - [   0.0013674700000000,  0.0000000000000000, -0.0020506700000000 ]
  - [   0.0013743700000000,  0.0000000000000000,  0.0020695000000000 ]
  - [  -0.0000146100000000,  0.0000000000000000, -0.0001925900000000 ]
  - [  -0.0000113300000000,  0.0000000000000000,  0.0001898400000000 ]
  - [   0.0013674700000000,  0.0020506700000000,  0.0000000000000000 ]
  - [   0.0013743700000000, -0.0020695000000000,  0.0000000000000000 ]
  - [   0.0013674700000000, -0.0020506700000000,  0.0000000000000000 ]
  - [   0.0013743700000000,  0.0020695000000000,  0.0000000000000000 ]
  - [  -0.0000146100000000,  0.0001925900000000,  0.0000000000000000 ]
  - [  -0.0000113300000000, -0.0001898400000000,  0.0000000000000000 ]
  - [  -0.0000146100000000, -0.0001925900000000,  0.0000000000000000 ]
  - [  -0.0000113300000000,  0.0001898400000000,  0.0000000000000000 ]

force_constants:
  format: "compact"
  shape: [ 8, 64 ]
  elements:
  - # (1, 1)
    - [     1.806194000000001,    -0.000000000000000,    -0.000000000000000 ]
    - [    -0.000000000000000,     1.806194000000001,    -0.000000000000000 ]
    - [    -0.000000000000000,    -0.000000000000000,     1.806194000000001 ]
  - # (1, 2)
    - [    -0.302404000000000,    -0.000000000000000,    -0.000000000000000 ]
    - [    -0.000000000000000,     0.004340000000000,    -0.000000000000000 ]
    - [    -0.000000000000000,    -0.000000000000000,     0.004340000000000 ]
  - # (1, 3)
    - [     0.004340000000000,    -0.000000000000000,    -0.000000000000000 ]
    - [    -0.000000000000000,    -0.302404000000000,    -0.000000000000000 ]
    - [    -0.000000000000000,    -0.000000000000000,     0.004340000000000 ]
  - # (1, 4)
    - [    -0.010669000000000,    -0.000000000000000,    -0.000000000000000 ]
    - [    -0.000000000000000,    -0.010669000000000,    -0.000000000000000 ]
    - [    -0.000000000000000,    -0.000000000000000,     0.015899000000000 ]
  - # (1, 5)
    - [     0.004340000000000,    -0.000000000000000,    -0.000000000000000 ]
    - [    -0.000000000000000,     0.004340000000000,    -0.000000000000000 ]
    - [    -0.000000000000000,    -0.000000000000000,    -0.302404000000000 ]
  - # (1, 6)
    - [    -0.010669000000000,    -0.000000000000000,    -0.000000000000000 ]
    - [    -0.000000000000000,     0.015899000000000,    -0.000000000000000 ]
    - [    -0.000000000000000,    -0.000000000000000,    -0.010669000000000 ]
  - # (1, 7)
    - [     0.015899000000000,    -0.000000000000000,    -0.000000000000000 ]
    - [    -0.000000000000000,    -0.010669000000000,    -0.000000000000000 ]
    - [    -0.000000000000000,    -0.000000000000000,    -0.010669000000000 ]
  - # (1, 8)
    - [    -0.013442000000000,    -0.000000000000000,    -0.000000000000000 ]
    - [    -0.000000000000000,    -0.013442000000000,    -0.000000000000000 ]
    - [    -0.000000000000000,    -0.000000000000000,    -0.013442000000000 ]
  - # (1, 9)
    - [     0.057168000000000,    -0.000000000000000,    -0.000000000000000 ]
    - [    -0.000000000000000,    -0.048479000000000,    -0.192846000000000 ]
    - [    -0.000000000000000,    -0.192846000000000,    -0.048479000000000 ]
  - # (1, 10)
    - [    -0.038176000000000,     0.000000000000000,     0.000000000000000 ]
    - [    -0.000000000000000,     0.001787500000000,     0.001746000000000 ]
    - [    -0.000000000000000,     0.001746000000000,     0.001787500000000 ]
  - # (1, 11)
    - [     0.057168000000000,     0.000000000000000,    -0.000000000000000 ]
    - [    -0.000000000000000,    -0.048479000000000,     0.192846000000000 ]
    - [    -0.000000000000000,     0.192846000000000,    -0.048479000000000 ]
  - # (1, 12)
    - [    -0.038176000000000,    -0.000000000000000,     0.000000000000000 ]
    - [    -0.000000000000000,     0.001787500000000,    -0.001746000000000 ]
    - [    -0.000000000000000,    -0.001746000000000,     0.001787500000000 ]
  - # (1, 13)
    - [     0.057168000000000,    -0.000000000000000,     0.000000000000000 ]
    - [    -0.000000000000000,    -0.048479000000000,     0.192846000000000 ]
    - [    -0.000000000000000,     0.192846000000000,    -0.048479000000000 ]
  - # (1, 14)
    - [    -0.038176000000000,     0.000000000000000,    -0.000000000000000 ]
    - [    -0.000000000000000,     0.001787500000000,    -0.001746000000000 ]
    - [    -0.000000000000000,    -0.001746000000000,     0.001787500000000 ]
  - # (1, 15)
    - [     0.057168000000000,     0.000000000000000,     0.000000000000000 ]
    - [    -0.000000000000000,    -0.048479000000000,    -0.192846000000000 ]
    - [    -0.000000000000000,    -0.192846000000000,    -0.048479000000000 ]
  - # (1, 16)
    - [    -0.038176000000000,    -0.000000000000000,    -0.000000000000000 ]
    - [    -0.000000000000000,     0.001787500000000,     0.001746000000000 ]
    - [    -0.000000000000000,     0.001746000000000,     0.001787500000000 ]
  - # (1, 17)
    - [    -0.048479000000000,    -0.000000000000000,    -0.192846000000000 ]
    - [    -0.000000000000000,     0.057168000000000,    -0.000000000000000 ]
    - [    -0.192846000000000,    -0.000000000000000,    -0.048479000000000 ]
  - # (1, 18)
    - [    -0.048479000000000,    -0.000000000000000,     0.192846000000000 ]
    - [    -0.000000000000000,     0.057168000000000,    -0.000000000000000 ]
    - [     0.192846000000000,    -0.000000000000000,    -0.048479000000000 ]
  - # (1, 19)
    - [     0.001787500000000,    -0.000000000000000,     0.001746000000000 ]
    - [    -0.000000000000000,    -0.038176000000000,    -0.000000000000000 ]
    - [     0.001746000000000,    -0.000000000000000,     0.001787500000000 ]
  - # (1, 20)
    - [     0.001787500000000,    -0.000000000000000,    -0.001746000000000 ]
    - [     0.000000000000000,    -0.038176000000000,    -0.000000000000000 ]
    - [    -0.001746000000000,    -0.000000000000000,     0.001787500000000 ]
  - # (1, 21)
    - [    -0.048479000000000,    -0.000000000000000,     0.192846000000000 ]
    - [    -0.000000000000000,     0.057168000000000,    -0.000000000000000 ]
    - [     0.192846000000000,    -0.000000000000000,    -0.048479000000000 ]
  - # (1, 22)
    - [    -0.048479000000000,    -0.000000000000000,    -0.192846000000000 ]
    - [    -0.000000000000000,     0.057168000000000,    -0.000000000000000 ]
    - [    -0.192846000000000,    -0.000000000000000,    -0.048479000000000 ]
  - # (1, 23)
    - [     0.001787500000000,    -0.000000000000000,    -0.001746000000000 ]
    - [    -0.000000000000000,    -0.038176000000000,     0.000000000000000 ]
    - [    -0.001746000000000,    -0.000000000000000,     0.001787500000000 ]
  - # (1, 24)
    - [     0.001787500000000,    -0.000000000000000,     0.001746000000000 ]
    - [     0.000000000000000,    -0.038176000000000,     0.000000000000000 ]
    - [     0.001746000000000,    -0.000000000000000,     0.001787500000000 ]
  - # (1, 25)
    - [    -0.048479000000000,    -0.192846000000000,    -0.000000000000000 ]
    - [    -0.192846000000000,    -0.048479000000000,    -0.000000000000000 ]