nqpoint: 1      
natom:   2      
reciprocal_lattice:
- [  -0.17573761,   0.17573761,   0.17573761 ] # a*
- [   0.17573761,  -0.17573761,   0.17573761 ] # b*
- [   0.17573761,   0.17573761,  -0.17573761 ] # c*
phonon:
- q-position: [    0.0000000,    0.0000000,    0.0000000 ]
  dynamical_matrix:
  - [    0.0520242281,   -0.0000000000,    0.0000000000,    0.0000000000,    0.0000000000,    0.0000000000,   -0.0425965665,    0.0000000000,    0.0000000000,    0.0000000000,   -0.0000000000,    0.0000000000 ]
  - [    0.0000000000,   -0.0000000000,    0.0520242281,   -0.0000000000,    0.0000000000,    0.0000000000,   -0.0000000000,    0.0000000000,   -0.0425965665,    0.0000000000,    0.0000000000,    0.0000000000 ]
  - [    0.0000000000,   -0.0000000000,    0.0000000000,   -0.0000000000,    0.0520242281,   -0.0000000000,   -0.0000000000,    0.0000000000,   -0.0000000000,    0.0000000000,   -0.0425965665,    0.0000000000 ]
  - [   -0.0425965665,   -0.0000000000,   -0.0000000000,   -0.0000000000,   -0.0000000000,   -0.0000000000,    0.0348679942,   -0.0000000000,    0.0000000000,    0.0000000000,   -0.0000000000,    0.0000000000 ]
  - [    0.0000000000,   -0.0000000000,   -0.0425965665,   -0.0000000000,   -0.0000000000,   -0.0000000000,    0.0000000000,   -0.0000000000,    0.0348679942,   -0.0000000000,    0.0000000000,    0.0000000000 ]
  - [   -0.0000000000,   -0.0000000000,    0.0000000000,   -0.0000000000,   -0.0425965665,   -0.0000000000,   -0.0000000000,   -0.0000000000,    0.0000000000,   -0.0000000000,    0.0348679942,   -0.0000000000 ]
  band:
  - # 1
    frequency:   -0.0370089502
  - # 2
    frequency:   -0.0370089502
  - # 3
    frequency:   -0.0370089502
  - # 4
    frequency:    4.6084532143
  - # 5
    frequency:    4.6084532143
  - # 6
    frequency:    4.6084532143

