 +-------------------------------------------------+
 |                                                 |
 |      CCC   AA    SSS  TTTTT  EEEEE  PPPP        |
 |     C     A  A  S       T    E      P   P       |
 |     C     AAAA   SS     T    EEE    PPPP        |
 |     C     A  A     S    T    E      P           |
 |      CCC  A  A  SSS     T    EEEEE  P           |
 |                                                 |
 +-------------------------------------------------+
 |                                                 |
 | Welcome to Academic Release CASTEP version 17.21|          
 | Ab Initio Total Energy Program                  |
 |                                                 |
 | Authors:                                        |
 | M. Segall, M. Probert, C. Pickard, P. Hasnip,   |
 | S. Clark, K. Refson, J. R. Yates, M. Payne      |
 |                                                 |
 | Contributors:                                   |
 | P. Lindan, P. Haynes, J. White, V. Milman,      |
 | N. Govind, M. Gibson, P. Tulip, V. Cocula,      |
 | B. Montanari, D. Quigley, M. Glover,            |
 | L. Bernasconi, A. Perlov, M. Plummer,           |
 | E. McNellis, J. Meyer, J. Gale, D. Jochym       |
 | J. Aarons, B. Walker, R. Gillen, D. Jones       |
 | T. Green, I. J. Bush, C. J. Armstrong,          |
 | E. J. Higgins, E. L. Brown, M. S. McFly,        |
 | J. Wilkins, B-C. Shih, P. J. P. Byrne           |
 |                                                 |
 | Copyright (c) 2000 - 2017                       |
 |                                                 |
 |     Distributed under the terms of an           |
 |     Agreement between the United Kingdom        |
 |     Car-Parrinello (UKCP) Consortium,           |
 |     Daresbury Laboratory and Accelrys, Inc.     |
 |                                                 |
 | Please cite                                     |
 |                                                 |
 |     "First principles methods using CASTEP"     |
 |                                                 |
 |         Zeitschrift fuer Kristallographie       |
 |           220(5-6) pp. 567-570 (2005)           |
 |                                                 |
 | S. J. Clark, M. D. Segall, C. J. Pickard,       |
 | P. J. Hasnip, M. J. Probert, K. Refson,         |
 | M. C. Payne                                     |
 |                                                 |
 |       in all publications arising from          |
 |              your use of CASTEP                 |
 |                                                 |
 +-------------------------------------------------+
 
 
 Compiled for linux_x86_64_ifort15 on Tue, 18 Jul 2017 15:38:41 +0100
 from code version 
 056e886bd5a1+ Castep172_branch Mon, 15 May 2017 14:45:35 +0100
 Compiler: Intel Fortran 15.0.3.187; Optimisation: fast
 MATHLIBS: Intel MKL(11.2.3) (LAPACK version 3.5.0)
 FFT Lib : default
 Fundamental constants values: CODATA 2010
 
 Run started: Thu, 19 Apr 2018 14:45:47 +0100
 Info: number of up-spin electrons is not equal to the
       number of down-spins but spin_polarized=false
     - consider setting spin_polarized=true.
 
 Pseudo atomic calculation performed for Al 3s2 3p1
 
 Converged in 15 iterations to a total energy of -52.8779 eV
 
 Calculation parallelised over 16 processes.
 Data is distributed by G-vector(8-way) and k-point(2-way)

 ************************************ Title ************************************
 

 ***************************** General Parameters ******************************
  
 output verbosity                               : normal  (1)
 write checkpoint data to                       : Al.check
 type of calculation                            : band structure
 stress calculation                             : off
 density difference calculation                 : off
 electron localisation func (ELF) calculation   : off
 Hirshfeld analysis                             : off
 unlimited duration calculation
 timing information                             : on
 memory usage estimate                          : on
 write final potential to formatted file        : off
 write final density to formatted file          : off
 write BibTeX reference list                    : on
 write OTFG pseudopotential files               : on
 write electrostatic potential file             : on
 write bands file                               : on
 checkpoint writing                             : both castep_bin and check files
  
 output         length unit                     : A
 output           mass unit                     : amu
 output           time unit                     : ps
 output         charge unit                     : e
 output           spin unit                     : hbar/2
 output         energy unit                     : eV
 output          force unit                     : eV/A
 output       velocity unit                     : A/ps
 output       pressure unit                     : GPa
 output     inv_length unit                     : 1/A
 output      frequency unit                     : cm-1
 output force constant unit                     : eV/A**2
 output         volume unit                     : A**3
 output   IR intensity unit                     : (D/A)**2/amu
 output         dipole unit                     : D
 output         efield unit                     : eV/A/e
 output        entropy unit                     : J/mol/K
  
 wavefunctions paging                           : none
 random number generator seed                   : randomised (144548438)
 data distribution                              : optimal for this architecture
 optimization strategy                          : maximize speed(+++)

 *********************** Exchange-Correlation Parameters ***********************
  
 using functional                               : Local Density Approximation
 relativistic treatment                         : Koelling-Harmon
 DFT+D: Semi-empirical dispersion correction    : off

 ************************* Pseudopotential Parameters **************************
  
 pseudopotential representation                 : reciprocal space
 <beta|phi> representation                      : reciprocal space
 spin-orbit coupling                            : off

 **************************** Basis Set Parameters *****************************
  
 plane wave basis set cut-off                   :   120.0000   eV
 size of standard grid                          :     1.7500
 size of   fine   gmax                          :     9.8213   1/A
 finite basis set correction                    : none

 **************************** Electronic Parameters ****************************
  
 number of  electrons                           :  3.000    
 net charge of system                           :  0.000    
 treating system as non-spin-polarized
 number of bands                                :          6

 ********************* Electronic Minimization Parameters **********************
  
 Method: Treating system as metallic with density mixing treatment of electrons,
         and number of  SD  steps               :          1
         and number of  CG  steps               :          4
  
 total energy / atom convergence tol.           : 0.1000E-04   eV
 eigen-energy convergence tolerance             : 0.1000E-05   eV
 max force / atom convergence tol.              : ignored
 convergence tolerance window                   :          3   cycles
 max. number of SCF cycles                      :         30
 number of fixed-spin iterations                :         10
 smearing scheme                                : Gaussian
 smearing width                                 : 0.2000       eV
 Fermi energy convergence tolerance             : 0.2721E-13   eV
 periodic dipole correction                     : NONE

 ************************** Density Mixing Parameters **************************
  
 density-mixing scheme                          : Broyden
 max. length of mixing history                  :         20
 charge density mixing amplitude                : 0.8000    
 cut-off energy for mixing                      :  120.0       eV

 *********************** Population Analysis Parameters ************************
  
 Population analysis with cutoff                :  3.000       A

 ************************** Band Structure Parameters **************************
  
 max. number of iterations                      :         60
 max. CG steps in BS calc                       :         25
 number of bands / k-point                      :         19
 band convergence tolerance                     : 0.1000E-05   eV
 write orbitals file                            : on

 *******************************************************************************
  
 
                           -------------------------------
                                      Unit Cell
                           -------------------------------
        Real Lattice(A)                      Reciprocal Lattice(1/A)
   0.0000000   2.0247500   2.0247500       -1.5515953   1.5515953   1.5515953
   2.0247500   0.0000000   2.0247500        1.5515953  -1.5515953   1.5515953
   2.0247500   2.0247500   0.0000000        1.5515953   1.5515953  -1.5515953
 
                       Lattice parameters(A)       Cell Angles
                    a =    2.863429          alpha =   60.000000
                    b =    2.863429          beta  =   60.000000
                    c =    2.863429          gamma =   60.000000
 
                       Current cell volume =   16.601381       A**3
                                   density =    1.625259   AMU/A**3
                                           =    2.698805     g/cm^3
 
                           -------------------------------
                                     Cell Contents
                           -------------------------------
                         Total number of ions in cell =    1
                      Total number of species in cell =    1
                        Max number of any one species =    1
 
            xxxxxxxxxxxxxxxxxxxxxxxxxxxxxxxxxxxxxxxxxxxxxxxxxxxxxxxxxxxx
            x  Element    Atom        Fractional coordinates of atoms  x
            x            Number           u          v          w      x
            x----------------------------------------------------------x
            x  Al           1         0.000000   0.000000   0.000000   x 
            xxxxxxxxxxxxxxxxxxxxxxxxxxxxxxxxxxxxxxxxxxxxxxxxxxxxxxxxxxxx
 
 
                         No user defined ionic velocities
 
                           -------------------------------
                                   Details of Species
                           -------------------------------
 
                               Mass of species in AMU
                                    Al   26.9815400
 
                          Electric Quadrupole Moment (Barn)
                                    Al    0.1466000 Isotope 27
 
                          Files used for pseudopotentials:
                                    Al /apps/castep/pseudopotentials/Al_00.usp
 
                           -------------------------------
                              k-Points For BZ Sampling
                           -------------------------------
                       MP grid size for SCF calculation is 12 12 12
                            with an offset of   0.000  0.000  0.000
                       Number of kpoints used =           182
 
                           -------------------------------
                               Symmetry and Constraints
                           -------------------------------
 
                      Maximum deviation from symmetry =  0.00000         ANG
 
                      Number of symmetry operations   =          48
                      Number of ionic constraints     =           3
                      Point group of crystal =    32: Oh, m-3m, 4/m -3 2/m
                      Space group of crystal =   225: Fm-3m, -F 4 2 3
 
             Set iprint > 1 for details on symmetry rotations/translations
 
                         Centre of mass is constrained
             Set iprint > 1 for details of linear ionic constraints
 
                         Number of cell constraints= 5
                         Cell constraints are:  1 1 1 0 0 0
 
                         External pressure/stress (GPa)
                          0.00000   0.00000   0.00000
                                    0.00000   0.00000
                                              0.00000
  
+---------------- MEMORY AND SCRATCH DISK ESTIMATES PER PROCESS --------------+
|                                                     Memory          Disk    |
| Baseline code, static data and system overhead      225.0 MB         0.0 MB |
| BLAS internal memory storage                          0.0 MB         0.0 MB |
| Model and support data                                2.2 MB         0.0 MB |
| Electronic energy minimisation requirements           0.4 MB         0.0 MB |
| Force calculation requirements                        0.0 MB         0.0 MB |
|                                               ----------------------------- |
| Approx. total storage required per process          227.6 MB         0.0 MB |
|                                                                             |
| Requirements will fluctuate during execution and may exceed these estimates |
+-----------------------------------------------------------------------------+
Calculating total energy with cut-off of  120.000 eV.
------------------------------------------------------------------------ <-- SCF
SCF loop      Energy           Fermi           Energy gain       Timer   <-- SCF
                               energy          per atom          (sec)   <-- SCF
------------------------------------------------------------------------ <-- SCF
Initial   7.34886929E+001  0.00000000E+000                         1.39  <-- SCF
      1  -5.23719382E+001  9.64181616E+000   1.25860631E+002       2.46  <-- SCF
      2  -5.70413792E+001  7.98695944E+000   4.66944096E+000       3.37  <-- SCF
      3  -5.70989379E+001  7.95672078E+000   5.75587494E-002       4.23  <-- SCF
      4  -5.70933648E+001  7.95034290E+000  -5.57306495E-003       5.23  <-- SCF
      5  -5.70921532E+001  7.95185499E+000  -1.21165282E-003       6.18  <-- SCF
      6  -5.70921702E+001  7.95185128E+000   1.70344903E-005       6.84  <-- SCF
      7  -5.70921747E+001  7.95184977E+000   4.49696723E-006       7.42  <-- SCF
      8  -5.70921747E+001  7.95184933E+000  -4.43892554E-008       7.99  <-- SCF
------------------------------------------------------------------------ <-- SCF
 
Final energy, E             =  -57.08296875464     eV
Final free energy (E-TS)    =  -57.09217467843     eV
(energies not corrected for finite basis set)
 
NB est. 0K energy (E-0.5TS)      =  -57.08757171654     eV
 

Writing analysis data to Al.castep_bin

Writing model to Al.check
  
+---------------- MEMORY AND SCRATCH DISK ESTIMATES PER PROCESS --------------+
|                                                     Memory          Disk    |
| Baseline code, static data and system overhead      225.0 MB         0.0 MB |
| BLAS internal memory storage                          0.0 MB         0.0 MB |
| Model and support data                                2.2 MB         0.0 MB |
| Band structure calculation requirements               1.6 MB         0.0 MB |
| Force calculation requirements                        0.0 MB         0.0 MB |
|                                               ----------------------------- |
| Approx. total storage required per process          228.8 MB         0.0 MB |
|                                                                             |
| Requirements will fluctuate during execution and may exceed these estimates |
+-----------------------------------------------------------------------------+
  =====================================================================
  +  Fermi energy for spin-degenerate system:     7.95185 eV          +
  +                                                                   +
  +       B A N D   S T R U C T U R E   C A L C U L A T I O N         +
  +      (General k-point calculation - complex wavefunctions)        +
  +                                                                   +
  + Calculation re-parallelised over 16 processes.                    +
  + Data distributed by G-vector(8-way), k-point(2-way)               +
  +                                                                   +
  + ================================================================= +
  +                                                                   +
  +     Band Structure Calculation: Progress report on root process   +
  +                                                                   +
  +   There are  182 BS k-points. Root process contains   91 of them. +
  +                                                                   +
  +   Spin= 1 of  1, K-point=   1 of   91 completed, Time:     0.55s. +
  +   Spin= 1 of  1, K-point=   2 of   91 completed, Time:     0.50s. +
  +   Spin= 1 of  1, K-point=   3 of   91 completed, Time:     0.51s. +
  +   Spin= 1 of  1, K-point=   4 of   91 completed, Time:     0.52s. +
  +   Spin= 1 of  1, K-point=   5 of   91 completed, Time:     0.54s. +
  +   Spin= 1 of  1, K-point=   6 of   91 completed, Time:     0.54s. +
  +   Spin= 1 of  1, K-point=   7 of   91 completed, Time:     0.52s. +
  +   Spin= 1 of  1, K-point=   8 of   91 completed, Time:     0.55s. +
  +   Spin= 1 of  1, K-point=   9 of   91 completed, Time:     0.49s. +
  +   Spin= 1 of  1, K-point=  10 of   91 completed, Time:     0.49s. +
  +   Spin= 1 of  1, K-point=  11 of   91 completed, Time:     0.52s. +
  +   Spin= 1 of  1, K-point=  12 of   91 completed, Time:     0.49s. +
  +   Spin= 1 of  1, K-point=  13 of   91 completed, Time:     0.52s. +
  +   Spin= 1 of  1, K-point=  14 of   91 completed, Time:     0.52s. +
  +   Spin= 1 of  1, K-point=  15 of   91 completed, Time:     0.53s. +
  +   Spin= 1 of  1, K-point=  16 of   91 completed, Time:     0.50s. +
  +   Spin= 1 of  1, K-point=  17 of   91 completed, Time:     0.53s. +
  +   Spin= 1 of  1, K-point=  18 of   91 completed, Time:     0.47s. +
  +   Spin= 1 of  1, K-point=  19 of   91 completed, Time:     0.54s. +
  +   Spin= 1 of  1, K-point=  20 of   91 completed, Time:     0.56s. +
  +   Spin= 1 of  1, K-point=  21 of   91 completed, Time:     0.48s. +
  +   Spin= 1 of  1, K-point=  22 of   91 completed, Time:     0.49s. +
  +   Spin= 1 of  1, K-point=  23 of   91 completed, Time:     0.50s. +
  +   Spin= 1 of  1, K-point=  24 of   91 completed, Time:     0.49s. +
  +   Spin= 1 of  1, K-point=  25 of   91 completed, Time:     0.50s. +
  +   Spin= 1 of  1, K-point=  26 of   91 completed, Time:     0.52s. +
  +   Spin= 1 of  1, K-point=  27 of   91 completed, Time:     0.66s. +
  +   Spin= 1 of  1, K-point=  28 of   91 completed, Time:     0.56s. +
  +   Spin= 1 of  1, K-point=  29 of   91 completed, Time:     0.54s. +
  +   Spin= 1 of  1, K-point=  30 of   91 completed, Time:     0.47s. +
  +   Spin= 1 of  1, K-point=  31 of   91 completed, Time:     0.50s. +
  +   Spin= 1 of  1, K-point=  32 of   91 completed, Time:     0.54s. +
  +   Spin= 1 of  1, K-point=  33 of   91 completed, Time:     0.54s. +
  +   Spin= 1 of  1, K-point=  34 of   91 completed, Time:     0.53s. +
  +   Spin= 1 of  1, K-point=  35 of   91 completed, Time:     0.50s. +
  +   Spin= 1 of  1, K-point=  36 of   91 completed, Time:     0.50s. +
  +   Spin= 1 of  1, K-point=  37 of   91 completed, Time:     0.52s. +
  +   Spin= 1 of  1, K-point=  38 of   91 completed, Time:     0.54s. +
  +   Spin= 1 of  1, K-point=  39 of   91 completed, Time:     0.52s. +
  +   Spin= 1 of  1, K-point=  40 of   91 completed, Time:     0.50s. +
  +   Spin= 1 of  1, K-point=  41 of   91 completed, Time:     0.55s. +
  +   Spin= 1 of  1, K-point=  42 of   91 completed, Time:     0.52s. +
  +   Spin= 1 of  1, K-point=  43 of   91 completed, Time:     0.51s. +
  +   Spin= 1 of  1, K-point=  44 of   91 completed, Time:     0.56s. +
  +   Spin= 1 of  1, K-point=  45 of   91 completed, Time:     0.52s. +
  +   Spin= 1 of  1, K-point=  46 of   91 completed, Time:     0.52s. +
  +   Spin= 1 of  1, K-point=  47 of   91 completed, Time:     0.53s. +
  +   Spin= 1 of  1, K-point=  48 of   91 completed, Time:     0.49s. +
  +   Spin= 1 of  1, K-point=  49 of   91 completed, Time:     0.47s. +
  +   Spin= 1 of  1, K-point=  50 of   91 completed, Time:     0.49s. +
  +   Spin= 1 of  1, K-point=  51 of   91 completed, Time:     0.53s. +
  +   Spin= 1 of  1, K-point=  52 of   91 completed, Time:     0.47s. +
  +   Spin= 1 of  1, K-point=  53 of   91 completed, Time:     0.51s. +
  +   Spin= 1 of  1, K-point=  54 of   91 completed, Time:     0.52s. +
  +   Spin= 1 of  1, K-point=  55 of   91 completed, Time:     0.51s. +
  +   Spin= 1 of  1, K-point=  56 of   91 completed, Time:     0.49s. +
  +   Spin= 1 of  1, K-point=  57 of   91 completed, Time:     0.47s. +
  +   Spin= 1 of  1, K-point=  58 of   91 completed, Time:     0.53s. +
  +   Spin= 1 of  1, K-point=  59 of   91 completed, Time:     0.54s. +
  +   Spin= 1 of  1, K-point=  60 of   91 completed, Time:     0.49s. +
  +   Spin= 1 of  1, K-point=  61 of   91 completed, Time:     0.50s. +
  +   Spin= 1 of  1, K-point=  62 of   91 completed, Time:     0.53s. +
  +   Spin= 1 of  1, K-point=  63 of   91 completed, Time:     0.50s. +
  +   Spin= 1 of  1, K-point=  64 of   91 completed, Time:     0.55s. +
  +   Spin= 1 of  1, K-point=  65 of   91 completed, Time:     0.50s. +
  +   Spin= 1 of  1, K-point=  66 of   91 completed, Time:     0.52s. +
  +   Spin= 1 of  1, K-point=  67 of   91 completed, Time:     0.53s. +
  +   Spin= 1 of  1, K-point=  68 of   91 completed, Time:     0.49s. +
  +   Spin= 1 of  1, K-point=  69 of   91 completed, Time:     0.47s. +
  +   Spin= 1 of  1, K-point=  70 of   91 completed, Time:     0.52s. +
  +   Spin= 1 of  1, K-point=  71 of   91 completed, Time:     0.52s. +
  +   Spin= 1 of  1, K-point=  72 of   91 completed, Time:     0.51s. +
  +   Spin= 1 of  1, K-point=  73 of   91 completed, Time:     0.48s. +
  +   Spin= 1 of  1, K-point=  74 of   91 completed, Time:     0.52s. +
  +   Spin= 1 of  1, K-point=  75 of   91 completed, Time:     0.51s. +
  +   Spin= 1 of  1, K-point=  76 of   91 completed, Time:     0.54s. +
  +   Spin= 1 of  1, K-point=  77 of   91 completed, Time:     0.52s. +
  +   Spin= 1 of  1, K-point=  78 of   91 completed, Time:     0.50s. +
  +   Spin= 1 of  1, K-point=  79 of   91 completed, Time:     0.50s. +
  +   Spin= 1 of  1, K-point=  80 of   91 completed, Time:     0.51s. +
  +   Spin= 1 of  1, K-point=  81 of   91 completed, Time:     0.52s. +
  +   Spin= 1 of  1, K-point=  82 of   91 completed, Time:     0.52s. +
  +   Spin= 1 of  1, K-point=  83 of   91 completed, Time:     0.52s. +
  +   Spin= 1 of  1, K-point=  84 of   91 completed, Time:     0.48s. +
  +   Spin= 1 of  1, K-point=  85 of   91 completed, Time:     0.54s. +
  +   Spin= 1 of  1, K-point=  86 of   91 completed, Time:     0.52s. +
  +   Spin= 1 of  1, K-point=  87 of   91 completed, Time:     0.53s. +
  +   Spin= 1 of  1, K-point=  88 of   91 completed, Time:     0.53s. +
  +   Spin= 1 of  1, K-point=  89 of   91 completed, Time:     0.52s. +
  +   Spin= 1 of  1, K-point=  90 of   91 completed, Time:     0.53s. +
  +   Spin= 1 of  1, K-point=  91 of   91 completed, Time:     0.53s. +
  +   Finished BS calculation on root process (waiting for others).   +
  +                                                                   +
  + ================================================================= +
  +                       Electronic energies                         +
  +                       -------------------                         +
  +                                                                   +
  +   Band number   Energy in eV                                      +
  + ================================================================= +
  +                                                                   +
  + ----------------------------------------------------------------- +
  +  Spin=1 kpt=    1 ( -0.458333 -0.375000 -0.458333) kpt-group=  1  +
  + ----------------------------------------------------------------- +
  +                                                                   +
  +           1        1.941576                                       +
  +           2        5.522094                                       +
  +           3       17.244028                                       +
  +           4       17.317478                                       +
  +           5       18.985703                                       +
  +           6       21.951437                                       +
  +           7       24.575877                                       +
  +           8       25.201177                                       +
  +           9       30.561337                                       +
  +          10       34.047843                                       +
  +          11       39.142587                                       +
  +          12       39.190066                                       +
  +          13       41.121445                                       +
  +          14       47.436022                                       +
  +          15       48.912205                                       +
  +          16       50.716406                                       +
  +          17       51.288095                                       +
  +          18       56.288790                                       +
  +          19       57.614575                                       +
  + ----------------------------------------------------------------- +
  +  Spin=1 kpt=    2 ( -0.458333 -0.375000 -0.041667) kpt-group=  1  +
  + ----------------------------------------------------------------- +
  +                                                                   +
  +           1        2.527704                                       +
  +           2        9.782594                                       +
  +           3       11.459189                                       +
  +           4       13.186542                                       +
  +           5       15.820126                                       +
  +           6       18.542274                                       +
  +           7       31.052356                                       +
  +           8       34.164643                                       +
  +           9       35.421887                                       +
  +          10       38.333675                                       +
  +          11       40.827460                                       +
  +          12       41.289360                                       +
  +          13       42.516746                                       +
  +          14       43.412621                                       +
  +          15       44.804396                                       +
  +          16       45.719067                                       +
  +          17       46.734801                                       +
  +          18       52.482110                                       +
  +          19       55.288625                                       +
  + ----------------------------------------------------------------- +
  +  Spin=1 kpt=    3 ( -0.458333 -0.208333 -0.291667) kpt-group=  1  +
  + ----------------------------------------------------------------- +
  +                                                                   +
  +           1        0.723553                                       +
  +           2        9.729288                                       +
  +           3       11.743696                                       +
  +           4       16.257341                                       +
  +           5       21.840029                                       +
  +           6       22.364011                                       +
  +           7       24.245284                                       +
  +           8       28.068425                                       +
  +           9       30.340211                                       +
  +          10       33.473680                                       +
  +          11       36.081729                                       +
  +          12       39.968952                                       +
  +          13       42.592565                                       +
  +          14       44.425383                                       +
  +          15       47.744628                                       +
  +          16       49.597430                                       +
  +          17       53.945734                                       +
  +          18       54.343980                                       +
  +          19       56.370931                                       +
  + ----------------------------------------------------------------- +
  +  Spin=1 kpt=    4 ( -0.458333 -0.208333  0.458333) kpt-group=  1  +
  + ----------------------------------------------------------------- +
  +                                                                   +
  +           1        3.243679                                       +
  +           2        8.160405                                       +
  +           3       10.496674                                       +
  +           4       12.581316                                       +
  +           5       18.206267                                       +
  +           6       22.507153                                       +
  +           7       27.003795                                       +
  +           8       31.992880                                       +
  +           9       34.063873                                       +
  +          10       35.437589                                       +
  +          11       40.392865                                       +
  +          12       41.309720                                       +
  +          13       42.485680                                       +
  +          14       46.791404                                       +
  +          15       47.079059                                       +
  +          16       49.527450                                       +
  +          17       50.934792                                       +
  +          18       51.503637                                       +
  +          19       54.875333                                       +
  + ----------------------------------------------------------------- +
  +  Spin=1 kpt=    5 ( -0.458333 -0.041667 -0.041667) kpt-group=  1  +
  + ----------------------------------------------------------------- +
  +                                                                   +
  +           1        1.816956                                       +
  +           2        5.399249                                       +
  +           3       17.662349                                       +
  +           4       19.021033                                       +
  +           5       19.878639                                       +
  +           6       20.420229                                       +
  +           7       23.110099                                       +
  +           8       24.495174                                       +
  +           9       31.973580                                       +
  +          10       33.142660                                       +
  +          11       38.728030                                       +
  +          12       39.383600                                       +
  +          13       41.053685                                       +
  +          14       46.632909                                       +
  +          15       49.439050                                       +
  +          16       50.614735                                       +
  +          17       51.387620                                       +
  +          18       56.237362                                       +
  +          19       58.293027                                       +
  + ----------------------------------------------------------------- +
  +  Spin=1 kpt=    6 ( -0.458333  0.041667 -0.458333) kpt-group=  1  +
  + ----------------------------------------------------------------- +
  +                                                                   +
  +           1        4.740942                                       +
  +           2        6.694186                                       +
  +           3       12.303135                                       +
  +           4       13.427293                                       +
  +           5       14.231215                                       +
  +           6       17.304505                                       +
  +           7       34.410389                                       +
  +           8       36.224395                                       +
  +           9       36.231630                                       +
  +          10       40.805407                                       +
  +          11       40.913653                                       +
  +          12       41.632334                                       +
  +          13       41.737269                                       +
  +          14       44.045412                                       +
  +          15       47.212330                                       +
  +          16       47.828214                                       +
  +          17       49.209529                                       +
  +          18       50.095109                                       +
  +          19       50.755216                                       +
  + ----------------------------------------------------------------- +
  +  Spin=1 kpt=    7 ( -0.458333  0.125000 -0.458333) kpt-group=  1  +
  + ----------------------------------------------------------------- +
  +                                                                   +
  +           1        4.969501                                       +
  +           2        6.927866                                       +
  +           3        9.998247                                       +
  +           4       13.643724                                       +
  +           5       15.179803                                       +
  +           6       19.279098                                       +
  +           7       32.679896                                       +
  +           8       34.476096                                       +
  +           9       34.480134                                       +
  +          10       39.036680                                       +
  +          11       42.432187                                       +
  +          12       42.560533                                       +
  +          13       43.685592                                       +
  +          14       44.525216                                       +
  +          15       46.547915                                       +
  +          16       48.287051                                       +
  +          17       48.583887                                       +
  +          18       51.081549                                       +
  +          19       51.081839                                       +
  + ----------------------------------------------------------------- +
  +  Spin=1 kpt=    8 ( -0.458333  0.375000  0.125000) kpt-group=  1  +
  + ----------------------------------------------------------------- +
  +                                                                   +
  +           1        3.121709                                       +
  +           2        9.259521                                       +
  +           3       10.329464                                       +
  +           4       11.353979                                       +
  +           5       19.127969                                       +
  +           6       21.363815                                       +
  +           7       26.973840                                       +
  +           8       32.855439                                       +
  +           9       34.281860                                       +
  +          10       36.960773                                       +
  +          11       39.679975                                       +
  +          12       40.312670                                       +
  +          13       43.339882                                       +
  +          14       45.314755                                       +
  +          15       47.851952                                       +
  +          16       48.960350                                       +
  +          17       50.285088                                       +
  +          18       51.927206                                       +
  +          19       53.469885                                       +
  + ----------------------------------------------------------------- +
  +  Spin=1 kpt=    9 ( -0.458333  0.375000  0.458333) kpt-group=  1  +
  + ----------------------------------------------------------------- +
  +                                                                   +
  +           1        2.898034                                       +
  +           2        5.045082                                       +
  +           3       14.875456                                       +
  +           4       15.590758                                       +
  +           5       20.437088                                       +
  +           6       21.373706                                       +
  +           7       26.345375                                       +
  +           8       27.652465                                       +
  +           9       30.193059                                       +
  +          10       33.077095                                       +
  +          11       38.151265                                       +
  +          12       40.410074                                       +
  +          13       42.656195                                       +
  +          14       47.635242                                       +
  +          15       49.093661                                       +
  +          16       52.213713                                       +
  +          17       52.690384                                       +
  +          18       54.657537                                       +
  +          19       57.657893                                       +
  + ----------------------------------------------------------------- +
  +  Spin=1 kpt=   10 ( -0.375000 -0.375000 -0.375000) kpt-group=  1  +
  + ----------------------------------------------------------------- +
  +                                                                   +
  +           1        0.611027                                       +
  +           2        7.050137                                       +
  +           3       18.652575                                       +
  +           4       18.652575                                       +
  +           5       20.747086                                       +
  +           6       20.747086                                       +
  +           7       22.462265                                       +
  +           8       24.701996                                       +
  +           9       30.982241                                       +
  +          10       30.982241                                       +
  +          11       36.883736                                       +
  +          12       42.396259                                       +
  +          13       42.396259                                       +
  +          14       46.105081                                       +
  +          15       47.716134                                       +
  +          16       47.716134                                       +
  +          17       48.866316                                       +
  +          18       53.590060                                       +
  +          19       62.707358                                       +
  + ----------------------------------------------------------------- +
  +  Spin=1 kpt=   11 ( -0.375000  0.291667  0.458333) kpt-group=  1  +
  + ----------------------------------------------------------------- +
  +                                                                   +
  +           1        4.314173                                       +
  +           2        6.417195                                       +
  +           3       10.822234                                       +
  +           4       11.629798                                       +
  +           5       21.744300                                       +
  +           6       22.763530                                       +
  +           7       26.083398                                       +
  +           8       29.275918                                       +
  +           9       33.078830                                       +
  +          10       34.746281                                       +
  +          11       39.364501                                       +
  +          12       42.006061                                       +
  +          13       43.445328                                       +
  +          14       47.376319                                       +
  +          15       49.863365                                       +
  +          16       50.098745                                       +
  +          17       53.208725                                       +
  +          18       54.347283                                       +
  +          19       55.008034                                       +
  + ----------------------------------------------------------------- +
  +  Spin=1 kpt=   12 ( -0.291667 -0.458333 -0.458333) kpt-group=  1  +
  + ----------------------------------------------------------------- +
  +                                                                   +
  +           1        1.811701                                       +
  +           2        6.807244                                       +
  +           3       14.603279                                       +
  +           4       15.817982                                       +
  +           5       17.698467                                       +
  +           6       24.474629                                       +
  +           7       25.651739                                       +
  +           8       28.180990                                       +
  +           9       28.617455                                       +
  +          10       34.692471                                       +
  +          11       39.537833                                       +
  +          12       39.834690                                       +
  +          13       41.952658                                       +
  +          14       45.956607                                       +
  +          15       48.063353                                       +
  +          16       49.327951                                       +
  +          17       52.012228                                       +
  +          18       55.093799                                       +
  +          19       57.357473                                       +
  + ----------------------------------------------------------------- +
  +  Spin=1 kpt=   13 ( -0.291667 -0.458333 -0.291667) kpt-group=  1  +
  + ----------------------------------------------------------------- +
  +                                                                   +
  +           1        0.720244                                       +
  +           2        8.509650                                       +
  +           3       12.930705                                       +
  +           4       18.096137                                       +
  +           5       20.182920                                       +
  +           6       22.783606                                       +
  +           7       25.320534                                       +
  +           8       26.906081                                       +
  +           9       29.253220                                       +
  +          10       31.547019                                       +
  +          11       37.503826                                       +
  +          12       39.941059                                       +
  +          13       42.560060                                       +
  +          14       45.381248                                       +
  +          15       47.545734                                       +
  +          16       50.450827                                       +
  +          17       51.792950                                       +
  +          18       54.869803                                       +
  +          19       57.215959                                       +
  + ----------------------------------------------------------------- +
  +  Spin=1 kpt=   14 ( -0.291667 -0.458333  0.041667) kpt-group=  1  +
  + ----------------------------------------------------------------- +
  +                                                                   +
  +           1        2.882681                                       +
  +           2        9.174615                                       +
  +           3       10.172661                                       +
  +           4       13.463761                                       +
  +           5       16.598675                                       +
  +           6       20.973170                                       +
  +           7       28.918553                                       +
  +           8       32.416683                                       +
  +           9       35.156508                                       +
  +          10       36.189475                                       +
  +          11       40.860605                                       +
  +          12       41.376630                                       +
  +          13       42.353816                                       +
  +          14       44.915891                                       +
  +          15       46.118187                                       +
  +          16       48.182939                                       +
  +          17       49.325494                                       +
  +          18       51.556336                                       +
  +          19       55.501490                                       +
  + ----------------------------------------------------------------- +
  +  Spin=1 kpt=   15 ( -0.291667 -0.375000 -0.375000) kpt-group=  1  +
  + ----------------------------------------------------------------- +
  +                                                                   +
  +           1        0.237718                                       +
  +           2        8.091135                                       +
  +           3       17.020781                                       +
  +           4       18.395191                                       +
  +           5       18.707877                                       +
  +           6       23.012401                                       +
  +           7       24.238916                                       +
  +           8       26.012053                                       +
  +           9       27.877694                                       +
  +          10       31.915610                                       +
  +          11       36.835456                                       +
  +          12       41.712080                                       +
  +          13       43.796578                                       +
  +          14       44.852886                                       +
  +          15       45.080480                                       +
  +          16       47.315416                                       +
  +          17       50.342473                                       +
  +          18       54.115558                                       +
  +          19       61.220696                                       +
  + ----------------------------------------------------------------- +
  +  Spin=1 kpt=   16 ( -0.291667 -0.375000 -0.041667) kpt-group=  1  +
  + ----------------------------------------------------------------- +
  +                                                                   +
  +           1        0.482008                                       +
  +           2       12.252041                                       +
  +           3       13.340660                                       +
  +           4       13.975863                                       +
  +           5       16.624883                                       +
  +           6       19.249234                                       +
  +           7       29.101565                                       +
  +           8       31.766345                                       +
  +           9       33.387521                                       +
  +          10       34.725639                                       +
  +          11       37.173124                                       +
  +          12       39.625883                                       +
  +          13       40.873209                                       +
  +          14       42.448128                                       +
  +          15       43.946047                                       +
  +          16       47.170889                                       +
  +          17       49.705356                                       +
  +          18       55.369378                                       +
  +          19       57.795220                                       +
  + ----------------------------------------------------------------- +
  +  Spin=1 kpt=   17 ( -0.291667 -0.208333 -0.291667) kpt-group=  1  +
  + ----------------------------------------------------------------- +
  +                                                                   +
  +           1       -1.110406                                       +
  +           2       10.969442                                       +
  +           3       17.124639                                       +
  +           4       18.745736                                       +
  +           5       19.882257                                       +
  +           6       23.996139                                       +
  +           7       24.344082                                       +
  +           8       25.056594                                       +
  +           9       27.871459                                       +
  +          10       29.415214                                       +
  +          11       34.042687                                       +
  +          12       39.569193                                       +
  +          13       40.340051                                       +
  +          14       42.194584                                       +
  +          15       46.970645                                       +
  +          16       48.341535                                       +
  +          17       49.308912                                       +
  +          18       55.670135                                       +
  +          19       60.642651                                       +
  + ----------------------------------------------------------------- +
  +  Spin=1 kpt=   18 ( -0.291667  0.125000 -0.458333) kpt-group=  1  +
  + ----------------------------------------------------------------- +
  +                                                                   +
  +           1        4.284280                                       +
  +           2        8.712771                                       +
  +           3        9.077095                                       +
  +           4       11.074685                                       +
  +           5       18.901288                                       +
  +           6       21.179146                                       +
  +           7       28.013817                                       +
  +           8       31.698209                                       +
  +           9       35.487645                                       +
  +          10       38.752695                                       +
  +          11       41.341438                                       +
  +          12       41.687591                                       +
  +          13       42.499850                                       +
  +          14       44.451053                                       +
  +          15       47.762503                                       +
  +          16       49.749427                                       +
  +          17       50.535143                                       +
  +          18       51.001576                                       +
  +          19       52.069879                                       +
  + ----------------------------------------------------------------- +
  +  Spin=1 kpt=   19 ( -0.291667  0.375000 -0.125000) kpt-group=  1  +
  + ----------------------------------------------------------------- +
  +                                                                   +
  +           1        4.539771                                       +
  +           2        5.289060                                       +
  +           3       11.719288                                       +
  +           4       12.515554                                       +
  +           5       20.781709                                       +
  +           6       22.890223                                       +
  +           7       27.363927                                       +
  +           8       29.126976                                       +
  +           9       32.085942                                       +
  +          10       32.928422                                       +
  +          11       39.903871                                       +
  +          12       40.401091                                       +
  +          13       45.488408                                       +
  +          14       46.790843                                       +
  +          15       49.145227                                       +
  +          16       51.445264                                       +
  +          17       53.266211                                       +
  +          18       54.921317                                       +
  +          19       55.616896                                       +
  + ----------------------------------------------------------------- +
  +  Spin=1 kpt=   20 ( -0.291667  0.458333  0.208333) kpt-group=  1  +
  + ----------------------------------------------------------------- +
  +                                                                   +
  +           1        6.471044                                       +
  +           2        7.169112                                       +
  +           3        8.381579                                       +
  +           4        9.364641                                       +
  +           5       22.555151                                       +
  +           6       24.013200                                       +
  +           7       24.914454                                       +
  +           8       27.207680                                       +
  +           9       36.510314                                       +
  +          10       40.021170                                       +
  +          11       42.254368                                       +
  +          12       42.484710                                       +
  +          13       43.232702                                       +
  +          14       43.763783                                       +
  +          15       45.691053                                       +
  +          16       46.316442                                       +
  +          17       54.294533                                       +
  +          18       55.765425                                       +
  +          19       58.312310                                       +
  + ----------------------------------------------------------------- +
  +  Spin=1 kpt=   21 ( -0.208333  0.041667  0.291667) kpt-group=  1  +
  + ----------------------------------------------------------------- +
  +                                                                   +
  +           1        1.333348                                       +
  +           2        8.924528                                       +
  +           3       10.948759                                       +
  +           4       16.689400                                       +
  +           5       20.093850                                       +
  +           6       24.076880                                       +
  +           7       25.608619                                       +
  +           8       27.405802                                       +
  +           9       29.901660                                       +
  +          10       33.619360                                       +
  +          11       36.310715                                       +
  +          12       39.113991                                       +
  +          13       44.447768                                       +
  +          14       45.848027                                       +
  +          15       49.025407                                       +
  +          16       50.925853                                       +
  +          17       53.986926                                       +
  +          18       54.689966                                       +
  +          19       55.422793                                       +
  + ----------------------------------------------------------------- +
  +  Spin=1 kpt=   22 ( -0.208333  0.125000 -0.458333) kpt-group=  1  +
  + ----------------------------------------------------------------- +
  +                                                                   +
  +           1        3.719614                                       +
  +           2        7.231027                                       +
  +           3       10.908571                                       +
  +           4       11.748988                                       +
  +           5       19.976931                                       +
  +           6       23.868585                                       +
  +           7       25.195406                                       +
  +           8       30.830838                                       +
  +           9       33.392372                                       +
  +          10       34.906705                                       +
  +          11       39.864387                                       +
  +          12       41.566591                                       +
  +          13       42.906737                                       +
  +          14       47.383745                                       +
  +          15       48.759085                                       +
  +          16       49.674398                                       +
  +          17       52.470383                                       +
  +          18       53.390820                                       +
  +          19       54.101750                                       +
  + ----------------------------------------------------------------- +
  +  Spin=1 kpt=   23 ( -0.208333  0.125000  0.125000) kpt-group=  1  +
  + ----------------------------------------------------------------- +
  +                                                                   +
  +           1       -0.496646                                       +
  +           2       10.161354                                       +
  +           3       16.359528                                       +
  +           4       17.830647                                       +
  +           5       18.126709                                       +
  +           6       23.955315                                       +
  +           7       24.925015                                       +
  +           8       26.215401                                       +
  +           9       28.486570                                       +
  +          10       31.166913                                       +
  +          11       35.754560                                       +
  +          12       40.115715                                       +
  +          13       41.992553                                       +
  +          14       42.994584                                       +
  +          15       44.961525                                       +
  +          16       47.787690                                       +
  +          17       51.101332                                       +
  +          18       56.030861                                       +
  +          19       58.408227                                       +
  + ----------------------------------------------------------------- +
  +  Spin=1 kpt=   24 ( -0.208333  0.125000  0.375000) kpt-group=  1  +
  + ----------------------------------------------------------------- +
  +                                                                   +
  +           1        3.132745                                       +
  +           2        7.875645                                       +
  +           3        9.904627                                       +
  +           4       13.148921                                       +
  +           5       21.469337                                       +
  +           6       23.274949                                       +
  +           7       25.201610                                       +
  +           8       30.312215                                       +
  +           9       31.683237                                       +
  +          10       34.655956                                       +
  +          11       37.780211                                       +
  +          12       39.950724                                       +
  +          13       45.543950                                       +
  +          14       47.626474                                       +
  +          15       49.364133                                       +
  +          16       50.901018                                       +
  +          17       52.878831                                       +
  +          18       54.835991                                       +
  +          19       55.149368                                       +
  + ----------------------------------------------------------------- +
  +  Spin=1 kpt=   25 ( -0.208333  0.208333  0.208333) kpt-group=  1  +
  + ----------------------------------------------------------------- +
  +                                                                   +
  +           1        1.090145                                       +
  +           2        8.887138                                       +
  +           3       13.933123                                       +
  +           4       15.160872                                       +
  +           5       16.981638                                       +
  +           6       23.049266                                       +
  +           7       26.419602                                       +
  +           8       29.330376                                       +
  +           9       30.868166                                       +
  +          10       34.578774                                       +
  +          11       39.500071                                       +
  +          12       40.564173                                       +
  +          13       42.716271                                       +
  +          14       42.994018                                       +
  +          15       45.739158                                       +
  +          16       46.483819                                       +
  +          17       54.266135                                       +
  +          18       54.885541                                       +
  +          19       56.901980                                       +
  + ----------------------------------------------------------------- +
  +  Spin=1 kpt=   26 ( -0.208333  0.291667 -0.291667) kpt-group=  1  +
  + ----------------------------------------------------------------- +
  +                                                                   +
  +           1        3.952744                                       +
  +           2        6.097854                                       +
  +           3       11.184581                                       +
  +           4       13.230456                                       +
  +           5       18.964127                                       +
  +           6       24.647810                                       +
  +           7       25.889386                                       +
  +           8       30.214545                                       +
  +           9       32.399553                                       +
  +          10       33.426165                                       +
  +          11       39.618306                                       +
  +          12       40.912197                                       +
  +          13       44.931701                                       +
  +          14       47.178330                                       +
  +          15       48.348398                                       +
  +          16       50.370886                                       +
  +          17       53.482100                                       +
  +          18       54.269057                                       +
  +          19       54.644168                                       +
  + ----------------------------------------------------------------- +
  +  Spin=1 kpt=   27 ( -0.208333  0.291667 -0.041667) kpt-group=  1  +
  + ----------------------------------------------------------------- +
  +                                                                   +
  +           1        1.451036                                       +
  +           2        7.813760                                       +
  +           3       12.261674                                       +
  +           4       16.788749                                       +
  +           5       20.166803                                       +
  +           6       22.929142                                       +
  +           7       26.292207                                       +
  +           8       27.381347                                       +
  +           9       30.299831                                       +
  +          10       31.960747                                       +
  +          11       37.035488                                       +
  +          12       40.253690                                       +
  +          13       43.836869                                       +
  +          14       46.723517                                       +
  +          15       47.165269                                       +
  +          16       51.629854                                       +
  +          17       52.321694                                       +
  +          18       56.073493                                       +
  +          19       56.510928                                       +
  + ----------------------------------------------------------------- +
  +  Spin=1 kpt=   28 ( -0.208333  0.458333 -0.291667) kpt-group=  1  +
  + ----------------------------------------------------------------- +
  +                                                                   +
  +           1        2.178369                                       +
  +           2        8.343447                                       +
  +           3       10.375797                                       +
  +           4       14.917787                                       +
  +           5       20.687238                                       +
  +           6       23.661612                                       +
  +           7       25.440936                                       +
  +           8       29.429445                                       +
  +           9       30.881105                                       +
  +          10       33.646590                                       +
  +          11       36.851239                                       +
  +          12       39.223491                                       +
  +          13       45.951353                                       +
  +          14       47.350769                                       +
  +          15       48.089304                                       +
  +          16       50.766140                                       +
  +          17       54.363090                                       +
  +          18       54.519860                                       +
  +          19       55.782204                                       +
  + ----------------------------------------------------------------- +
  +  Spin=1 kpt=   29 ( -0.208333  0.458333 -0.125000) kpt-group=  1  +
  + ----------------------------------------------------------------- +
  +                                                                   +
  +           1        2.534457                                       +
  +           2        6.093920                                       +
  +           3       13.231925                                       +
  +           4       15.249204                                       +
  +           5       20.838232                                       +
  +           6       21.665417                                       +
  +           7       27.029725                                       +
  +           8       28.562590                                       +
  +           9       29.914358                                       +
  +          10       32.481144                                       +
  +          11       37.333779                                       +
  +          12       41.817864                                       +
  +          13       43.551541                                       +
  +          14       45.956015                                       +
  +          15       49.527523                                       +
  +          16       51.546696                                       +
  +          17       52.925908                                       +
  +          18       54.430397                                       +
  +          19       57.346792                                       +
  + ----------------------------------------------------------------- +
  +  Spin=1 kpt=   30 ( -0.125000 -0.458333  0.291667) kpt-group=  1  +
  + ----------------------------------------------------------------- +
  +                                                                   +
  +           1        6.006068                                       +
  +           2        6.852911                                       +
  +           3        8.034591                                       +
  +           4       11.364462                                       +
  +           5       19.646689                                       +
  +           6       23.822747                                       +
  +           7       27.006748                                       +
  +           8       28.756623                                       +
  +           9       34.775127                                       +
  +          10       38.028201                                       +
  +          11       41.002074                                       +
  +          12       42.944052                                       +
  +          13       43.737968                                       +
  +          14       45.515522                                       +
  +          15       46.796288                                       +
  +          16       48.416085                                       +
  +          17       52.116304                                       +
  +          18       54.108602                                       +
  +          19       56.616640                                       +
  + ----------------------------------------------------------------- +
  +  Spin=1 kpt=   31 ( -0.125000  0.291667 -0.375000) kpt-group=  1  +
  + ----------------------------------------------------------------- +
  +                                                                   +
  +           1        4.901863                                       +
  +           2        6.832232                                       +
  +           3        8.850063                                       +
  +           4       12.138082                                       +
  +           5       20.496835                                       +
  +           6       24.963265                                       +
  +           7       26.222856                                       +
  +           8       27.928285                                       +
  +           9       33.154346                                       +
  +          10       36.199197                                       +
  +          11       39.290099                                       +
  +          12       41.452114                                       +
  +          13       44.674380                                       +
  +          14       47.284563                                       +
  +          15       48.968989                                       +
  +          16       50.960276                                       +
  +          17       52.530291                                       +
  +          18       53.822579                                       +
  +          19       55.877207                                       +
  + ----------------------------------------------------------------- +
  +  Spin=1 kpt=   32 ( -0.125000  0.458333  0.375000) kpt-group=  1  +
  + ----------------------------------------------------------------- +
  +                                                                   +
  +           1        5.084992                                       +
  +           2        7.040237                                       +
  +           3        9.964212                                       +
  +           4       11.903069                                       +
  +           5       17.067009                                       +
  +           6       19.570257                                       +
  +           7       31.262214                                       +
  +           8       32.460882                                       +
  +           9       36.298770                                       +
  +          10       39.968002                                       +
  +          11       41.522816                                       +
  +          12       42.353583                                       +
  +          13       43.388654                                       +
  +          14       45.350057                                       +
  +          15       45.696025                                       +
  +          16       47.986979                                       +
  +          17       48.944347                                       +
  +          18       51.034683                                       +
  +          19       52.308484                                       +
  + ----------------------------------------------------------------- +
  +  Spin=1 kpt=   33 ( -0.041667 -0.458333  0.291667) kpt-group=  1  +
  + ----------------------------------------------------------------- +
  +                                                                   +
  +           1        4.633580                                       +
  +           2        6.786947                                       +
  +           3        9.147725                                       +
  +           4       13.786456                                       +
  +           5       17.051101                                       +
  +           6       23.731863                                       +
  +           7       27.993270                                       +
  +           8       31.061855                                       +
  +           9       32.593508                                       +
  +          10       35.787246                                       +
  +          11       39.245036                                       +
  +          12       43.307533                                       +
  +          13       45.196831                                       +
  +          14       46.382564                                       +
  +          15       48.169733                                       +
  +          16       48.947238                                       +
  +          17       51.056744                                       +
  +          18       53.550012                                       +
  +          19       54.738255                                       +
  + ----------------------------------------------------------------- +
  +  Spin=1 kpt=   34 ( -0.041667 -0.291667 -0.291667) kpt-group=  1  +
  + ----------------------------------------------------------------- +
  +                                                                   +
  +           1       -0.500146                                       +
  +           2       14.013035                                       +
  +           3       15.044518                                       +
  +           4       15.177634                                       +
  +           5       15.968378                                       +
  +           6       18.823017                                       +
  +           7       29.648815                                       +
  +           8       30.705992                                       +
  +           9       31.366186                                       +
  +          10       34.384403                                       +
[...]
  +          12       41.059159                                       +
  +          13       44.525355                                       +
  +          14       46.407162                                       +
  +          15       48.676436                                       +
  +          16       52.178592                                       +
  +          17       52.729448                                       +
  +          18       54.665082                                       +
  +          19       56.157499                                       +
  + ----------------------------------------------------------------- +
  +  Spin=1 kpt=   82 (  0.375000 -0.375000  0.375000) kpt-group=  2  +
  + ----------------------------------------------------------------- +
  +                                                                   +
  +           1        3.850324                                       +
  +           2        5.948308                                       +
  +           3       10.437652                                       +
  +           4       15.713422                                       +
  +           5       17.691499                                       +
  +           6       25.763365                                       +
  +           7       27.605804                                       +
  +           8       29.167503                                       +
  +           9       29.907591                                       +
  +          10       32.817587                                       +
  +          11       36.823047                                       +
  +          12       42.711455                                       +
  +          13       45.261521                                       +
  +          14       47.207073                                       +
  +          15       51.680906                                       +
  +          16       52.440274                                       +
  +          17       52.591909                                       +
  +          18       53.816694                                       +
  +          19       55.055795                                       +
  + ----------------------------------------------------------------- +
  +  Spin=1 kpt=   83 (  0.375000 -0.291667  0.458333) kpt-group=  2  +
  + ----------------------------------------------------------------- +
  +                                                                   +
  +           1        5.096913                                       +
  +           2        5.872170                                       +
  +           3        9.604642                                       +
  +           4       13.003621                                       +
  +           5       18.753512                                       +
  +           6       25.130415                                       +
  +           7       26.314966                                       +
  +           8       29.736158                                       +
  +           9       32.491805                                       +
  +          10       35.289988                                       +
  +          11       38.967056                                       +
  +          12       43.036614                                       +
  +          13       44.715131                                       +
  +          14       46.561195                                       +
  +          15       49.567786                                       +
  +          16       49.677355                                       +
  +          17       52.916931                                       +
  +          18       53.648648                                       +
  +          19       55.353939                                       +
  + ----------------------------------------------------------------- +
  +  Spin=1 kpt=   84 (  0.375000 -0.208333  0.375000) kpt-group=  2  +
  + ----------------------------------------------------------------- +
  +                                                                   +
  +           1        5.432715                                       +
  +           2        7.306941                                       +
  +           3        7.844594                                       +
  +           4       14.077736                                       +
  +           5       15.823678                                       +
  +           6       22.102922                                       +
  +           7       30.730045                                       +
  +           8       32.261718                                       +
  +           9       32.423620                                       +
  +          10       37.018263                                       +
  +          11       41.227990                                       +
  +          12       43.686311                                       +
  +          13       44.502907                                       +
  +          14       46.192795                                       +
  +          15       48.091475                                       +
  +          16       48.597093                                       +
  +          17       49.871890                                       +
  +          18       52.041818                                       +
  +          19       52.265196                                       +
  + ----------------------------------------------------------------- +
  +  Spin=1 kpt=   85 (  0.375000 -0.041667 -0.458333) kpt-group=  2  +
  + ----------------------------------------------------------------- +
  +                                                                   +
  +           1        5.198812                                       +
  +           2        7.149566                                       +
  +           3        8.879072                                       +
  +           4       13.125687                                       +
  +           5       16.242235                                       +
  +           6       20.676513                                       +
  +           7       31.170063                                       +
  +           8       32.397968                                       +
  +           9       34.389169                                       +
  +          10       38.302576                                       +
  +          11       41.979232                                       +
  +          12       43.420743                                       +
  +          13       43.976659                                       +
  +          14       45.050036                                       +
  +          15       46.746456                                       +
  +          16       48.121231                                       +
  +          17       49.726043                                       +
  +          18       50.709995                                       +
  +          19       52.654452                                       +
  + ----------------------------------------------------------------- +
  +  Spin=1 kpt=   86 (  0.375000 -0.041667  0.208333) kpt-group=  2  +
  + ----------------------------------------------------------------- +
  +                                                                   +
  +           1        0.845515                                       +
  +           2       10.009088                                       +
  +           3       13.683544                                       +
  +           4       14.256410                                       +
  +           5       17.387777                                       +
  +           6       21.656997                                       +
  +           7       27.019707                                       +
  +           8       30.340272                                       +
  +           9       32.249199                                       +
  +          10       34.049871                                       +
  +          11       38.688562                                       +
  +          12       40.634749                                       +
  +          13       42.270476                                       +
  +          14       43.170989                                       +
  +          15       44.294099                                       +
  +          16       46.462380                                       +
  +          17       52.514914                                       +
  +          18       55.746880                                       +
  +          19       57.738210                                       +
  + ----------------------------------------------------------------- +
  +  Spin=1 kpt=   87 (  0.375000  0.041667 -0.041667) kpt-group=  2  +
  + ----------------------------------------------------------------- +
  +                                                                   +
  +           1        0.729105                                       +
  +           2        7.160627                                       +
  +           3       16.747094                                       +
  +           4       18.715414                                       +
  +           5       19.676934                                       +
  +           6       21.739236                                       +
  +           7       23.704057                                       +
  +           8       25.842894                                       +
  +           9       29.270531                                       +
  +          10       32.121969                                       +
  +          11       37.653671                                       +
  +          12       40.706729                                       +
  +          13       43.581484                                       +
  +          14       45.836075                                       +
  +          15       46.409917                                       +
  +          16       48.849968                                       +
  +          17       49.651747                                       +
  +          18       54.400319                                       +
  +          19       60.400475                                       +
  + ----------------------------------------------------------------- +
  +  Spin=1 kpt=   88 (  0.458333 -0.458333 -0.458333) kpt-group=  2  +
  + ----------------------------------------------------------------- +
  +                                                                   +
  +           1        3.253195                                       +
  +           2        3.990588                                       +
  +           3       16.526370                                       +
  +           4       17.790433                                       +
  +           5       19.562468                                       +
  +           6       21.191892                                       +
  +           7       24.250834                                       +
  +           8       25.309264                                       +
  +           9       32.892709                                       +
  +          10       33.101213                                       +
  +          11       38.118043                                       +
  +          12       39.952668                                       +
  +          13       40.586422                                       +
  +          14       46.552235                                       +
  +          15       51.140973                                       +
  +          16       53.398205                                       +
  +          17       53.463988                                       +
  +          18       55.798645                                       +
  +          19       56.444597                                       +
  + ----------------------------------------------------------------- +
  +  Spin=1 kpt=   89 (  0.458333 -0.208333  0.458333) kpt-group=  2  +
  + ----------------------------------------------------------------- +
  +                                                                   +
  +           1        4.281330                                       +
  +           2        7.804609                                       +
  +           3        8.815553                                       +
  +           4       14.182196                                       +
  +           5       15.940982                                       +
  +           6       22.194709                                       +
  +           7       29.427652                                       +
  +           8       31.871799                                       +
  +           9       33.463939                                       +
  +          10       36.611494                                       +
  +          11       39.895504                                       +
  +          12       43.007671                                       +
  +          13       45.661569                                       +
  +          14       46.140542                                       +
  +          15       46.618362                                       +
  +          16       48.295370                                       +
  +          17       49.428475                                       +
  +          18       52.566151                                       +
  +          19       54.768459                                       +
  + ----------------------------------------------------------------- +
  +  Spin=1 kpt=   90 (  0.458333 -0.041667 -0.041667) kpt-group=  2  +
  + ----------------------------------------------------------------- +
  +                                                                   +
  +           1        3.130463                                       +
  +           2        3.865491                                       +
  +           3       18.205927                                       +
  +           4       18.312629                                       +
  +           5       19.648862                                       +
  +           6       20.365175                                       +
  +           7       23.628062                                       +
  +           8       23.725145                                       +
  +           9       33.325623                                       +
  +          10       33.943845                                       +
  +          11       38.683411                                       +
  +          12       38.860144                                       +
  +          13       39.683344                                       +
  +          14       45.952746                                       +
  +          15       52.578739                                       +
  +          16       53.282875                                       +
  +          17       53.311668                                       +
  +          18       55.627070                                       +
  +          19       56.439089                                       +
  + ----------------------------------------------------------------- +
  +  Spin=1 kpt=   91 (  0.458333  0.458333  0.458333) kpt-group=  2  +
  + ----------------------------------------------------------------- +
  +                                                                   +
  +           1        2.415496                                       +
  +           2        4.570114                                       +
  +           3       18.922913                                       +
  +           4       18.922913                                       +
  +           5       19.753574                                       +
  +           6       19.753574                                       +
  +           7       22.861872                                       +
  +           8       23.699701                                       +
  +           9       33.465991                                       +
  +          10       33.465991                                       +
  +          11       38.967582                                       +
  +          12       39.339309                                       +
  +          13       39.339309                                       +
  +          14       45.988654                                       +
  +          15       51.944385                                       +
  +          16       51.944385                                       +
  +          17       52.041531                                       +
  +          18       57.426581                                       +
  +          19       57.489547                                       +
  =====================================================================

Writing model to Al.orbitals
  + Calculation re-parallelised over 16 processes.                    +
  + Data distributed by G-vector(8-way), k-point(2-way)               +
 
 ******************* Unconstrained Forces *******************
 *                                                          *
 *               Cartesian components (eV/A)                *
 * -------------------------------------------------------- *
 *                         x            y            z      *
 *                                                          *
 * Al              1      0.00000      0.00000      0.00000 *
 *                                                          *
 ************************************************************
 
 ************** Constrained Symmetrised Forces **************
 *                                                          *
 *               Cartesian components (eV/A)                *
 * -------------------------------------------------------- *
 *                         x            y            z      *
 *                                                          *
 * Al              1      0.00000      0.00000      0.00000 *
 *                                                          *
 ************************************************************
 
 Pseudo atomic calculation performed for Al 3s2 3p1
 
 Converged in 15 iterations to a total energy of -52.8779 eV
 
Charge spilling parameter for spin component 1 = 1.42%
 
     Atomic Populations (Mulliken)
     -----------------------------
Species          Ion     s      p      d      f     Total  Charge (e)
=====================================================================
  Al              1     1.13   1.87   0.00   0.00   3.00     0.00
=====================================================================
 
                 Bond                   Population      Length (A)
======================================================================
======================================================================
 

Writing analysis data to Al.castep_bin

Writing model to Al.check
 
 A BibTeX formatted list of references used in this run has been written to 
 Al.bib
 
Initialisation time =      1.30 s
Calculation time    =     56.00 s
Finalisation time   =      0.48 s
Total time          =     57.77 s
Peak Memory Use     = 272908 kB
  
Overall parallel efficiency rating: Poor (39%)                                  
  
Data was distributed by:-
G-vector (8-way); efficiency rating: Poor (40%)                                 
k-point (2-way); efficiency rating: Excellent (94%)                             
  
Parallel notes:
1) Calculation only took 57.3 s, so efficiency estimates may be inaccurate.     
