phonopy:
  version: 2.15.1
  calculator: qe
  frequency_unit_conversion_factor: 108.970772
  symmetry_tolerance: 1.00000e-05
  nac_unit_conversion_factor: 2.000000
  configuration:
    dim: "2 2 2"
    primitive_axis: "0.0 0.5 0.5  0.5 0.0 0.5  0.5 0.5 0.0"
    band: "0.0 0.0 0.0  0.5 0.0 0.0  0.5 0.5 0.0  0.0 0.0 0.0  0.5 0.5 0.5"
    nac: ".TRUE."
    include_all: ".TRUE."
    cell_filename: "NaCl.in"
    calculator: "qe"

physical_unit:
  atomic_mass: "AMU"
  length: "au"
  force_constants: "Ry/au^2"

space_group:
  type: "Fm-3m"
  number: 225
  Hall_symbol: "-F 4 2 3"

primitive_matrix:
- [  0.000000000000000,  0.500000000000000,  0.500000000000000 ]
- [  0.500000000000000,  0.000000000000000,  0.500000000000000 ]
- [  0.500000000000000,  0.500000000000000,  0.000000000000000 ]

supercell_matrix:
- [   2,   0,   0 ]
- [   0,   2,   0 ]
- [   0,   0,   2 ]

primitive_cell:
  lattice:
  - [     0.000000000000000,     5.376555713610800,     5.376555713610800 ] # a
  - [     5.376555713610800,     0.000000000000000,     5.376555713610800 ] # b
  - [     5.376555713610800,     5.376555713610800,     0.000000000000000 ] # c
  points:
  - symbol: Na # 1
    coordinates: [  0.000000000000000,  0.000000000000000,  0.000000000000000 ]
    mass: 22.989769
  - symbol: Cl # 2
    coordinates: [  0.500000000000000,  0.500000000000000,  0.500000000000000 ]
    mass: 35.453000
  reciprocal_lattice: # without 2pi
  - [    -0.092996339410051,     0.092996339410051,     0.092996339410051 ] # a*
  - [     0.092996339410051,    -0.092996339410051,     0.092996339410051 ] # b*
  - [     0.092996339410051,     0.092996339410051,    -0.092996339410051 ] # c*

unit_cell:
  lattice:
  - [    10.753111427221601,     0.000000000000000,     0.000000000000000 ] # a
  - [     0.000000000000000,    10.753111427221601,     0.000000000000000 ] # b
  - [     0.000000000000000,     0.000000000000000,    10.753111427221601 ] # c
  points:
  - symbol: Na # 1
    coordinates: [  0.000000000000000,  0.000000000000000,  0.000000000000000 ]
    mass: 22.989769
    reduced_to: 1
  - symbol: Na # 2
    coordinates: [  0.000000000000000,  0.500000000000000,  0.500000000000000 ]
    mass: 22.989769
    reduced_to: 1
  - symbol: Na # 3
    coordinates: [  0.500000000000000,  0.000000000000000,  0.500000000000000 ]
    mass: 22.989769
    reduced_to: 1
  - symbol: Na # 4
    coordinates: [  0.500000000000000,  0.500000000000000,  0.000000000000000 ]
    mass: 22.989769
    reduced_to: 1
  - symbol: Cl # 5
    coordinates: [  0.500000000000000,  0.500000000000000,  0.500000000000000 ]
    mass: 35.453000
    reduced_to: 5
  - symbol: Cl # 6
    coordinates: [  0.500000000000000,  0.000000000000000,  0.000000000000000 ]
    mass: 35.453000
    reduced_to: 5
  - symbol: Cl # 7
    coordinates: [  0.000000000000000,  0.500000000000000,  0.000000000000000 ]
    mass: 35.453000
    reduced_to: 5
  - symbol: Cl # 8
    coordinates: [  0.000000000000000,  0.000000000000000,  0.500000000000000 ]
    mass: 35.453000
    reduced_to: 5

supercell:
  lattice:
  - [    21.506222854443202,     0.000000000000000,     0.000000000000000 ] # a
  - [     0.000000000000000,    21.506222854443202,     0.000000000000000 ] # b
  - [     0.000000000000000,     0.000000000000000,    21.506222854443202 ] # c
  points:
  - symbol: Na # 1
    coordinates: [  0.000000000000000,  0.000000000000000,  0.000000000000000 ]
    mass: 22.989769
    reduced_to: 1
  - symbol: Na # 2
    coordinates: [  0.500000000000000,  0.000000000000000,  0.000000000000000 ]
    mass: 22.989769
    reduced_to: 1
  - symbol: Na # 3
    coordinates: [  0.000000000000000,  0.500000000000000,  0.000000000000000 ]
    mass: 22.989769
    reduced_to: 1
  - symbol: Na # 4
    coordinates: [  0.500000000000000,  0.500000000000000,  0.000000000000000 ]
    mass: 22.989769
    reduced_to: 1
  - symbol: Na # 5
    coordinates: [  0.000000000000000,  0.000000000000000,  0.500000000000000 ]
    mass: 22.989769
    reduced_to: 1
  - symbol: Na # 6
    coordinates: [  0.500000000000000,  0.000000000000000,  0.500000000000000 ]
    mass: 22.989769
    reduced_to: 1
  - symbol: Na # 7
    coordinates: [  0.000000000000000,  0.500000000000000,  0.500000000000000 ]
    mass: 22.989769
    reduced_to: 1
  - symbol: Na # 8
    coordinates: [  0.500000000000000,  0.500000000000000,  0.500000000000000 ]
    mass: 22.989769
    reduced_to: 1
  - symbol: Na # 9
    coordinates: [  0.000000000000000,  0.250000000000000,  0.250000000000000 ]
    mass: 22.989769
    reduced_to: 1
  - symbol: Na # 10
    coordinates: [  0.500000000000000,  0.250000000000000,  0.250000000000000 ]
    mass: 22.989769
    reduced_to: 1
  - symbol: Na # 11
    coordinates: [  0.000000000000000,  0.750000000000000,  0.250000000000000 ]
    mass: 22.989769
    reduced_to: 1
  - symbol: Na # 12
    coordinates: [  0.500000000000000,  0.750000000000000,  0.250000000000000 ]
    mass: 22.989769
    reduced_to: 1
  - symbol: Na # 13
    coordinates: [  0.000000000000000,  0.250000000000000,  0.750000000000000 ]
    mass: 22.989769
    reduced_to: 1
  - symbol: Na # 14
    coordinates: [  0.500000000000000,  0.250000000000000,  0.750000000000000 ]
    mass: 22.989769
    reduced_to: 1
  - symbol: Na # 15
    coordinates: [  0.000000000000000,  0.750000000000000,  0.750000000000000 ]
    mass: 22.989769
    reduced_to: 1
  - symbol: Na # 16
    coordinates: [  0.500000000000000,  0.750000000000000,  0.750000000000000 ]
    mass: 22.989769
    reduced_to: 1
  - symbol: Na # 17
    coordinates: [  0.250000000000000,  0.000000000000000,  0.250000000000000 ]
    mass: 22.989769
    reduced_to: 1
  - symbol: Na # 18
    coordinates: [  0.750000000000000,  0.000000000000000,  0.250000000000000 ]
    mass: 22.989769
    reduced_to: 1
  - symbol: Na # 19
    coordinates: [  0.250000000000000,  0.500000000000000,  0.250000000000000 ]
    mass: 22.989769
    reduced_to: 1
  - symbol: Na # 20
    coordinates: [  0.750000000000000,  0.500000000000000,  0.250000000000000 ]
    mass: 22.989769
    reduced_to: 1
  - symbol: Na # 21
    coordinates: [  0.250000000000000,  0.000000000000000,  0.750000000000000 ]
    mass: 22.989769
    reduced_to: 1
  - symbol: Na # 22
    coordinates: [  0.750000000000000,  0.000000000000000,  0.750000000000000 ]
    mass: 22.989769
    reduced_to: 1
  - symbol: Na # 23
    coordinates: [  0.250000000000000,  0.500000000000000,  0.750000000000000 ]
    mass: 22.989769
    reduced_to: 1
  - symbol: Na # 24
    coordinates: [  0.750000000000000,  0.500000000000000,  0.750000000000000 ]
    mass: 22.989769
    reduced_to: 1
  - symbol: Na # 25
    coordinates: [  0.250000000000000,  0.250000000000000,  0.000000000000000 ]
    mass: 22.989769
    reduced_to: 1
  - symbol: Na # 26
    coordinates: [  0.750000000000000,  0.250000000000000,  0.000000000000000 ]
    mass: 22.989769
    reduced_to: 1
  - symbol: Na # 27
    coordinates: [  0.250000000000000,  0.750000000000000,  0.000000000000000 ]
    mass: 22.989769
    reduced_to: 1
  - symbol: Na # 28
    coordinates: [  0.750000000000000,  0.750000000000000,  0.000000000000000 ]
    mass: 22.989769
    reduced_to: 1
  - symbol: Na # 29
    coordinates: [  0.250000000000000,  0.250000000000000,  0.500000000000000 ]
    mass: 22.989769
    reduced_to: 1
  - symbol: Na # 30
    coordinates: [  0.750000000000000,  0.250000000000000,  0.500000000000000 ]
    mass: 22.989769
    reduced_to: 1
  - symbol: Na # 31
    coordinates: [  0.250000000000000,  0.750000000000000,  0.500000000000000 ]
    mass: 22.989769
    reduced_to: 1
  - symbol: Na # 32
    coordinates: [  0.750000000000000,  0.750000000000000,  0.500000000000000 ]
    mass: 22.989769
    reduced_to: 1
  - symbol: Cl # 33
    coordinates: [  0.250000000000000,  0.250000000000000,  0.250000000000000 ]
    mass: 35.453000
    reduced_to: 33
  - symbol: Cl # 34
    coordinates: [  0.750000000000000,  0.250000000000000,  0.250000000000000 ]
    mass: 35.453000
    reduced_to: 33
  - symbol: Cl # 35
    coordinates: [  0.250000000000000,  0.750000000000000,  0.250000000000000 ]
    mass: 35.453000
    reduced_to: 33
  - symbol: Cl # 36
    coordinates: [  0.750000000000000,  0.750000000000000,  0.250000000000000 ]
    mass: 35.453000
    reduced_to: 33
  - symbol: Cl # 37
    coordinates: [  0.250000000000000,  0.250000000000000,  0.750000000000000 ]
    mass: 35.453000
    reduced_to: 33
  - symbol: Cl # 38
    coordinates: [  0.750000000000000,  0.250000000000000,  0.750000000000000 ]
    mass: 35.453000
    reduced_to: 33
  - symbol: Cl # 39
    coordinates: [  0.250000000000000,  0.750000000000000,  0.750000000000000 ]
    mass: 35.453000
    reduced_to: 33
  - symbol: Cl # 40
    coordinates: [  0.750000000000000,  0.750000000000000,  0.750000000000000 ]
    mass: 35.453000
    reduced_to: 33
  - symbol: Cl # 41
    coordinates: [  0.250000000000000,  0.000000000000000,  0.000000000000000 ]
    mass: 35.453000
    reduced_to: 33
  - symbol: Cl # 42
    coordinates: [  0.750000000000000,  0.000000000000000,  0.000000000000000 ]
    mass: 35.453000
    reduced_to: 33
  - symbol: Cl # 43
    coordinates: [  0.250000000000000,  0.500000000000000,  0.000000000000000 ]
    mass: 35.453000
    reduced_to: 33
  - symbol: Cl # 44
    coordinates: [  0.750000000000000,  0.500000000000000,  0.000000000000000 ]
    mass: 35.453000
    reduced_to: 33
  - symbol: Cl # 45
    coordinates: [  0.250000000000000,  0.000000000000000,  0.500000000000000 ]
    mass: 35.453000
    reduced_to: 33
  - symbol: Cl # 46
    coordinates: [  0.750000000000000,  0.000000000000000,  0.500000000000000 ]
    mass: 35.453000
    reduced_to: 33
  - symbol: Cl # 47
    coordinates: [  0.250000000000000,  0.500000000000000,  0.500000000000000 ]
    mass: 35.453000
    reduced_to: 33
  - symbol: Cl # 48
    coordinates: [  0.750000000000000,  0.500000000000000,  0.500000000000000 ]
    mass: 35.453000
    reduced_to: 33
  - symbol: Cl # 49
    coordinates: [  0.000000000000000,  0.250000000000000,  0.000000000000000 ]
    mass: 35.453000
    reduced_to: 33
  - symbol: Cl # 50
    coordinates: [  0.500000000000000,  0.250000000000000,  0.000000000000000 ]
    mass: 35.453000
    reduced_to: 33
  - symbol: Cl # 51
    coordinates: [  0.000000000000000,  0.750000000000000,  0.000000000000000 ]
    mass: 35.453000
    reduced_to: 33
  - symbol: Cl # 52
    coordinates: [  0.500000000000000,  0.750000000000000,  0.000000000000000 ]
    mass: 35.453000
    reduced_to: 33
  - symbol: Cl # 53
    coordinates: [  0.000000000000000,  0.250000000000000,  0.500000000000000 ]
    mass: 35.453000
    reduced_to: 33
  - symbol: Cl # 54
    coordinates: [  0.500000000000000,  0.250000000000000,  0.500000000000000 ]
    mass: 35.453000
    reduced_to: 33
  - symbol: Cl # 55
    coordinates: [  0.000000000000000,  0.750000000000000,  0.500000000000000 ]
    mass: 35.453000
    reduced_to: 33
  - symbol: Cl # 56
    coordinates: [  0.500000000000000,  0.750000000000000,  0.500000000000000 ]
    mass: 35.453000
    reduced_to: 33
  - symbol: Cl # 57
    coordinates: [  0.000000000000000,  0.000000000000000,  0.250000000000000 ]
    mass: 35.453000
    reduced_to: 33
  - symbol: Cl # 58
    coordinates: [  0.500000000000000,  0.000000000000000,  0.250000000000000 ]
    mass: 35.453000
    reduced_to: 33
  - symbol: Cl # 59
    coordinates: [  0.000000000000000,  0.500000000000000,  0.250000000000000 ]
    mass: 35.453000
    reduced_to: 33
  - symbol: Cl # 60
    coordinates: [  0.500000000000000,  0.500000000000000,  0.250000000000000 ]
    mass: 35.453000
    reduced_to: 33
  - symbol: Cl # 61
    coordinates: [  0.000000000000000,  0.000000000000000,  0.750000000000000 ]
    mass: 35.453000
    reduced_to: 33
  - symbol: Cl # 62
    coordinates: [  0.500000000000000,  0.000000000000000,  0.750000000000000 ]
    mass: 35.453000
    reduced_to: 33
  - symbol: Cl # 63
    coordinates: [  0.000000000000000,  0.500000000000000,  0.750000000000000 ]
    mass: 35.453000
    reduced_to: 33
  - symbol: Cl # 64
    coordinates: [  0.500000000000000,  0.500000000000000,  0.750000000000000 ]
    mass: 35.453000
    reduced_to: 33

born_effective_charge:
- # 1 (Na)
  - [  1.105385000000000, -0.000000000000000, -0.000000000000000 ]
  - [ -0.000000000000000,  1.105385000000000,  0.000000000000000 ]
  - [  0.000000000000000,  0.000000000000000,  1.105385000000000 ]
- # 2 (Cl)
  - [ -1.105385000000000,  0.000000000000000,  0.000000000000000 ]
  - [  0.000000000000000, -1.105385000000000, -0.000000000000000 ]
  - [  0.000000000000000,  0.000000000000000, -1.105385000000000 ]

dielectric_constant:
  - [  2.472958201000000,  0.000000000000000,  0.000000000000000 ]
  - [  0.000000000000000,  2.472958201000000,  0.000000000000000 ]
  - [  0.000000000000000,  0.000000000000000,  2.472958201000000 ]

displacements:
- atom:    1
  displacement:
    [   0.0200000000000000,  0.0000000000000000,  0.0000000000000000 ]
  forces:
  - [  -0.0007561403000000, -0.0000000000000000, -0.0000000000000000 ]
  - [   0.0001235297000000, -0.0000000000000000, -0.0000000000000000 ]
  - [  -0.0000022703000000, -0.0000000000000000, -0.0000000000000000 ]
  - [   0.0000060597000000, -0.0000000000000000, -0.0000000000000000 ]
  - [  -0.0000022703000000, -0.0000000000000000, -0.0000000000000000 ]
  - [   0.0000060597000000, -0.0000000000000000, -0.0000000000000000 ]
  - [  -0.0000073103000000, -0.0000000000000000, -0.0000000000000000 ]
  - [   0.0000088897000000, -0.0000000000000000, -0.0000000000000000 ]
  - [  -0.0000241403000000,  0.0000002200000000,  0.0000002200000000 ]
  - [   0.0000182297000000,  0.0000004300000000,  0.0000004300000000 ]
  - [  -0.0000241403000000, -0.0000002200000000,  0.0000002200000000 ]
  - [   0.0000182297000000, -0.0000004300000000,  0.0000004300000000 ]
  - [  -0.0000241403000000,  0.0000002200000000, -0.0000002200000000 ]
  - [   0.0000182297000000,  0.0000004300000000, -0.0000004300000000 ]
  - [  -0.0000241403000000, -0.0000002200000000, -0.0000002200000000 ]
  - [   0.0000182297000000, -0.0000004300000000, -0.0000004300000000 ]
  - [   0.0000225397000000, -0.0000000000000000,  0.0000801600000000 ]
  - [   0.0000174397000000, -0.0000000000000000, -0.0000776600000000 ]
  - [   0.0000017997000000, -0.0000000000000000, -0.0000022700000000 ]
  - [  -0.0000032803000000, -0.0000000000000000,  0.0000007700000000 ]
  - [   0.0000225397000000, -0.0000000000000000, -0.0000801600000000 ]
  - [   0.0000174397000000, -0.0000000000000000,  0.0000776600000000 ]
  - [   0.0000017997000000, -0.0000000000000000,  0.0000022700000000 ]
  - [  -0.0000032803000000, -0.0000000000000000, -0.0000007700000000 ]
  - [   0.0000225397000000,  0.0000801600000000, -0.0000000000000000 ]
  - [   0.0000174397000000, -0.0000776600000000, -0.0000000000000000 ]
  - [   0.0000225397000000, -0.0000801600000000, -0.0000000000000000 ]
  - [   0.0000174397000000,  0.0000776600000000, -0.0000000000000000 ]
  - [   0.0000017997000000, -0.0000022700000000, -0.0000000000000000 ]
  - [  -0.0000032803000000,  0.0000007700000000, -0.0000000000000000 ]
  - [   0.0000017997000000,  0.0000022700000000, -0.0000000000000000 ]
  - [  -0.0000032803000000, -0.0000007700000000, -0.0000000000000000 ]
  - [  -0.0000025403000000, -0.0000185100000000, -0.0000185100000000 ]
  - [  -0.0000025803000000,  0.0000178500000000,  0.0000178500000000 ]
  - [  -0.0000025403000000,  0.0000185100000000, -0.0000185100000000 ]
  - [  -0.0000025803000000, -0.0000178500000000,  0.0000178500000000 ]
  - [  -0.0000025403000000, -0.0000185100000000,  0.0000185100000000 ]
  - [  -0.0000025803000000,  0.0000178500000000, -0.0000178500000000 ]
  - [  -0.0000025403000000,  0.0000185100000000,  0.0000185100000000 ]
  - [  -0.0000025803000000, -0.0000178500000000, -0.0000178500000000 ]
  - [   0.0001969997000000, -0.0000000000000000, -0.0000000000000000 ]
  - [   0.0001810897000000, -0.0000000000000000, -0.0000000000000000 ]
  - [   0.0000015697000000, -0.0000000000000000, -0.0000000000000000 ]
  - [   0.0000024897000000, -0.0000000000000000, -0.0000000000000000 ]
  - [   0.0000015697000000, -0.0000000000000000, -0.0000000000000000 ]
  - [   0.0000024897000000, -0.0000000000000000, -0.0000000000000000 ]
  - [   0.0000005797000000, -0.0000000000000000, -0.0000000000000000 ]
  - [  -0.0000000403000000, -0.0000000000000000, -0.0000000000000000 ]
  - [   0.0000704997000000, -0.0000016900000000, -0.0000000000000000 ]
  - [  -0.0000381303000000,  0.0000000600000000, -0.0000000000000000 ]
  - [   0.0000704997000000,  0.0000016900000000, -0.0000000000000000 ]
  - [  -0.0000381303000000, -0.0000000600000000, -0.0000000000000000 ]
  - [   0.0000067197000000, -0.0000007100000000, -0.0000000000000000 ]
  - [  -0.0000073803000000, -0.0000009500000000, -0.0000000000000000 ]
  - [   0.0000067197000000,  0.0000007100000000, -0.0000000000000000 ]
  - [  -0.0000073803000000,  0.0000009500000000, -0.0000000000000000 ]
  - [   0.0000704997000000, -0.0000000000000000, -0.0000016900000000 ]
  - [  -0.0000381303000000, -0.0000000000000000,  0.0000000600000000 ]
  - [   0.0000067197000000, -0.0000000000000000, -0.0000007100000000 ]
  - [  -0.0000073803000000, -0.0000000000000000, -0.0000009500000000 ]
  - [   0.0000704997000000, -0.0000000000000000,  0.0000016900000000 ]
  - [  -0.0000381303000000, -0.0000000000000000, -0.0000000600000000 ]
  - [   0.0000067197000000, -0.0000000000000000,  0.0000007100000000 ]
  - [  -0.0000073803000000, -0.0000000000000000,  0.0000009500000000 ]
- atom:   33
  displacement:
    [   0.0200000000000000,  0.0000000000000000,  0.0000000000000000 ]
  forces:
  - [  -0.0000042692000000, -0.0000178000000000, -0.0000178000000000 ]
  - [  -0.0000028192000000,  0.0000175500000000,  0.0000175500000000 ]
  - [  -0.0000042692000000,  0.0000178000000000, -0.0000178000000000 ]
  - [  -0.0000028192000000, -0.0000175500000000,  0.0000175500000000 ]
  - [  -0.0000042692000000, -0.0000178000000000,  0.0000178000000000 ]
  - [  -0.0000028192000000,  0.0000175500000000, -0.0000175500000000 ]
  - [  -0.0000042692000000,  0.0000178000000000,  0.0000178000000000 ]
  - [  -0.0000028192000000, -0.0000175500000000, -0.0000175500000000 ]
  - [   0.0001811908000000,  0.0000000000000000,  0.0000000000000000 ]
  - [   0.0001978208000000,  0.0000000000000000,  0.0000000000000000 ]
  - [   0.0000002708000000,  0.0000000000000000,  0.0000000000000000 ]
  - [   0.0000030208000000,  0.0000000000000000,  0.0000000000000000 ]
  - [   0.0000002708000000,  0.0000000000000000,  0.0000000000000000 ]
  - [   0.0000030208000000,  0.0000000000000000,  0.0000000000000000 ]
  - [  -0.0000026992000000,  0.0000000000000000,  0.0000000000000000 ]
  - [  -0.0000005792000000,  0.0000000000000000,  0.0000000000000000 ]
  - [   0.0000707908000000,  0.0000003300000000,  0.0000000000000000 ]
  - [  -0.0000403292000000,  0.0000003100000000,  0.0000000000000000 ]
  - [   0.0000707908000000, -0.0000003300000000,  0.0000000000000000 ]
  - [  -0.0000403292000000, -0.0000003100000000,  0.0000000000000000 ]
  - [   0.0000079608000000,  0.0000001500000000,  0.0000000000000000 ]
  - [  -0.0000096092000000, -0.0000003000000000,  0.0000000000000000 ]
  - [   0.0000079608000000, -0.0000001500000000,  0.0000000000000000 ]
  - [  -0.0000096092000000,  0.0000003000000000,  0.0000000000000000 ]
  - [   0.0000707908000000,  0.0000000000000000,  0.0000003300000000 ]
  - [  -0.0000403292000000, -0.0000000000000000,  0.0000003100000000 ]
  - [   0.0000079608000000,  0.0000000000000000,  0.0000001500000000 ]
  - [  -0.0000096092000000,  0.0000000000000000, -0.0000003000000000 ]
  - [   0.0000707908000000,  0.0000000000000000, -0.0000003300000000 ]
  - [  -0.0000403292000000,  0.0000000000000000, -0.0000003100000000 ]
  - [   0.0000079608000000,  0.0000000000000000, -0.0000001500000000 ]
  - [  -0.0000096092000000,  0.0000000000000000,  0.0000003000000000 ]
  - [  -0.0009184492000000,  0.0000000000000000,  0.0000000000000000 ]
  - [   0.0000562708000000,  0.0000000000000000,  0.0000000000000000 ]
  - [  -0.0000224292000000,  0.0000000000000000,  0.0000000000000000 ]
  - [   0.0000270608000000,  0.0000000000000000,  0.0000000000000000 ]
  - [  -0.0000224292000000,  0.0000000000000000,  0.0000000000000000 ]
  - [   0.0000270608000000,  0.0000000000000000,  0.0000000000000000 ]
  - [  -0.0000071292000000,  0.0000000000000000,  0.0000000000000000 ]
  - [   0.0000088908000000,  0.0000000000000000,  0.0000000000000000 ]
  - [  -0.0000345892000000, -0.0000001600000000, -0.0000001600000000 ]
  - [   0.0000206708000000, -0.0000005400000000, -0.0000005400000000 ]
  - [  -0.0000345892000000,  0.0000001600000000, -0.0000001600000000 ]
  - [   0.0000206708000000,  0.0000005400000000, -0.0000005400000000 ]
  - [  -0.0000345892000000, -0.0000001600000000,  0.0000001600000000 ]
  - [   0.0000206708000000, -0.0000005400000000,  0.0000005400000000 ]
  - [  -0.0000345892000000,  0.0000001600000000,  0.0000001600000000 ]
  - [   0.0000206708000000,  0.0000005400000000,  0.0000005400000000 ]
  - [   0.0000557908000000,  0.0000000000000000,  0.0000860100000000 ]
  - [   0.0000558908000000, -0.0000000000000000, -0.0000856100000000 ]
  - [  -0.0000013992000000,  0.0000000000000000,  0.0000097300000000 ]
  - [  -0.0000008792000000, -0.0000000000000000, -0.0000076000000000 ]
  - [   0.0000557908000000,  0.0000000000000000, -0.0000860100000000 ]
  - [   0.0000558908000000,  0.0000000000000000,  0.0000856100000000 ]
  - [  -0.0000013992000000,  0.0000000000000000, -0.0000097300000000 ]
  - [  -0.0000008792000000,  0.0000000000000000,  0.0000076000000000 ]
  - [   0.0000557908000000,  0.0000860100000000,  0.0000000000000000 ]
  - [   0.0000558908000000, -0.0000856100000000,  0.0000000000000000 ]
  - [   0.0000557908000000, -0.0000860100000000,  0.0000000000000000 ]
  - [   0.0000558908000000,  0.0000856100000000,  0.0000000000000000 ]
  - [  -0.0000013992000000,  0.0000097300000000,  0.0000000000000000 ]
  - [  -0.0000008792000000, -0.0000076000000000,  0.0000000000000000 ]
  - [  -0.0000013992000000, -0.0000097300000000,  0.0000000000000000 ]
  - [  -0.0000008792000000,  0.0000076000000000,  0.0000000000000000 ]

force_constants:
  format: "compact"
  shape: [ 2, 64 ]
  elements:
  - # (1, 1)
    - [     0.037807015000000,    -0.000000000000000,    -0.000000000000000 ]
    - [    -0.000000000000000,     0.037807015000000,    -0.000000000000000 ]
    - [    -0.000000000000000,    -0.000000000000000,     0.037807015000000 ]
  - # (1, 2)
    - [    -0.006176485000000,    -0.000000000000000,    -0.000000000000000 ]
    - [    -0.000000000000000,     0.000113515000000,    -0.000000000000000 ]
    - [    -0.000000000000000,    -0.000000000000000,     0.000113515000000 ]
  - # (1, 3)
    - [     0.000113515000000,    -0.000000000000000,    -0.000000000000000 ]
    - [    -0.000000000000000,    -0.006176485000000,    -0.000000000000000 ]
    - [    -0.000000000000000,    -0.000000000000000,     0.000113515000000 ]
  - # (1, 4)
    - [    -0.000302985000000,    -0.000000000000000,    -0.000000000000000 ]
    - [    -0.000000000000000,    -0.000302985000000,    -0.000000000000000 ]
    - [    -0.000000000000000,    -0.000000000000000,     0.000365515000000 ]
  - # (1, 5)
    - [     0.000113515000000,    -0.000000000000000,    -0.000000000000000 ]
    - [    -0.000000000000000,     0.000113515000000,    -0.000000000000000 ]
    - [    -0.000000000000000,    -0.000000000000000,    -0.006176485000000 ]
  - # (1, 6)
    - [    -0.000302985000000,    -0.000000000000000,    -0.000000000000000 ]
    - [    -0.000000000000000,     0.000365515000000,    -0.000000000000000 ]
    - [    -0.000000000000000,    -0.000000000000000,    -0.000302985000000 ]
  - # (1, 7)
    - [     0.000365515000000,    -0.000000000000000,    -0.000000000000000 ]
    - [    -0.000000000000000,    -0.000302985000000,    -0.000000000000000 ]
    - [    -0.000000000000000,    -0.000000000000000,    -0.000302985000000 ]
  - # (1, 8)
    - [    -0.000444485000000,    -0.000000000000000,    -0.000000000000000 ]
    - [    -0.000000000000000,    -0.000444485000000,    -0.000000000000000 ]
    - [    -0.000000000000000,    -0.000000000000000,    -0.000444485000000 ]
  - # (1, 9)
    - [     0.001207015000000,    -0.000000000000000,    -0.000000000000000 ]
    - [    -0.000000000000000,    -0.000999485000000,    -0.003945500000000 ]
    - [    -0.000000000000000,    -0.003945500000000,    -0.000999485000000 ]
  - # (1, 10)
    - [    -0.000911485000000,    -0.000000000000000,    -0.000000000000000 ]
    - [    -0.000000000000000,     0.000037015000000,     0.000076000000000 ]
    - [    -0.000000000000000,     0.000076000000000,     0.000037015000000 ]
  - # (1, 11)
    - [     0.001207015000000,    -0.000000000000000,    -0.000000000000000 ]
    - [    -0.000000000000000,    -0.000999485000000,     0.003945500000000 ]
    - [    -0.000000000000000,     0.003945500000000,    -0.000999485000000 ]
  - # (1, 12)
    - [    -0.000911485000000,    -0.000000000000000,    -0.000000000000000 ]
    - [    -0.000000000000000,     0.000037015000000,    -0.000076000000000 ]
    - [    -0.000000000000000,    -0.000076000000000,     0.000037015000000 ]
  - # (1, 13)
    - [     0.001207015000000,    -0.000000000000000,    -0.000000000000000 ]
    - [    -0.000000000000000,    -0.000999485000000,     0.003945500000000 ]
    - [    -0.000000000000000,     0.003945500000000,    -0.000999485000000 ]
  - # (1, 14)
    - [    -0.000911485000000,    -0.000000000000000,    -0.000000000000000 ]
    - [    -0.000000000000000,     0.000037015000000,    -0.000076000000000 ]
    - [    -0.000000000000000,    -0.000076000000000,     0.000037015000000 ]
  - # (1, 15)
    - [     0.001207015000000,    -0.000000000000000,    -0.000000000000000 ]
    - [    -0.000000000000000,    -0.000999485000000,    -0.003945500000000 ]
    - [    -0.000000000000000,    -0.003945500000000,    -0.000999485000000 ]
  - # (1, 16)
    - [    -0.000911485000000,    -0.000000000000000,    -0.000000000000000 ]
    - [    -0.000000000000000,     0.000037015000000,     0.000076000000000 ]
    - [    -0.000000000000000,     0.000076000000000,     0.000037015000000 ]
  - # (1, 17)
    - [    -0.000999485000000,    -0.000000000000000,    -0.003945500000000 ]
    - [    -0.000000000000000,     0.001207015000000,    -0.000000000000000 ]
    - [    -0.003945500000000,    -0.000000000000000,    -0.000999485000000 ]
  - # (1, 18)
    - [    -0.000999485000000,    -0.000000000000000,     0.003945500000000 ]
    - [    -0.000000000000000,     0.001207015000000,    -0.000000000000000 ]
    - [     0.003945500000000,    -0.000000000000000,    -0.000999485000000 ]
  - # (1, 19)
    - [     0.000037015000000,    -0.000000000000000,     0.000076000000000 ]
    - [    -0.000000000000000,    -0.000911485000000,    -0.000000000000000 ]
    - [     0.000076000000000,    -0.000000000000000,     0.000037015000000 ]
  - # (1, 20)
    - [     0.000037015000000,    -0.000000000000000,    -0.000076000000000 ]
    - [    -0.000000000000000,    -0.000911485000000,    -0.000000000000000 ]
    - [    -0.000076000000000,    -0.000000000000000,     0.000037015000000 ]
  - # (1, 21)
    - [    -0.000999485000000,    -0.000000000000000,     0.003945500000000 ]
    - [    -0.000000000000000,     0.001207015000000,    -0.000000000000000 ]
    - [     0.003945500000000,    -0.000000000000000,    -0.000999485000000 ]
  - # (1, 22)
    - [    -0.000999485000000,    -0.000000000000000,    -0.003945500000000 ]
    - [    -0.000000000000000,     0.001207015000000,    -0.000000000000000 ]
    - [    -0.003945500000000,    -0.000000000000000,    -0.000999485000000 ]
  - # (1, 23)
    - [     0.000037015000000,    -0.000000000000000,    -0.000076000000000 ]
    - [    -0.000000000000000,    -0.000911485000000,    -0.000000000000000 ]
    - [    -0.000076000000000,    -0.000000000000000,     0.000037015000000 ]
  - # (1, 24)
    - [     0.000037015000000,    -0.000000000000000,     0.000076000000000 ]
    - [    -0.000000000000000,    -0.000911485000000,    -0.000000000000000 ]
    - [     0.000076000000000,    -0.000000000000000,     0.000037015000000 ]
  - # (1, 25)
    - [    -0.000999485000000,    -0.003945500000000,    -0.000000000000000 ]
    - [    -0.003945500000000,    -0.000999485000000,    -0.000000000000000 ]
    - [    -0.000000000000000,    -0.000000000000000,     0.001207015000000 ]
  - # (1, 26)
    - [    -0.000999485000000,     0.003945500000000,    -0.000000000000000 ]
    - [     0.003945500000000,    -0.000999485000000,    -0.000000000000000 ]
    - [    -0.000000000000000,    -0.000000000000000,     0.001207015000000 ]
  - # (1, 27)
    - [    -0.000999485000000,     0.003945500000000,    -0.000000000000000 ]
    - [     0.003945500000000,    -0.000999485000000,    -0.000000000000000 ]
    - [    -0.000000000000000,    -0.000000000000000,     0.001207015000000 ]
  - # (1, 28)
    - [    -0.000999485000000,    -0.003945500000000,    -0.000000000000000 ]
    - [    -0.003945500000000,    -0.000999485000000,    -0.000000000000000 ]
    - [    -0.000000000000000,    -0.000000000000000,     0.001207015000000 ]
  - # (1, 29)
    - [     0.000037015000000,     0.000076000000000,    -0.000000000000000 ]
    - [     0.000076000000000,     0.000037015000000,    -0.000000000000000 ]
    - [    -0.000000000000000,    -0.000000000000000,    -0.000911485000000 ]
  - # (1, 30)
    - [     0.000037015000000,    -0.000076000000000,    -0.000000000000000 ]
    - [    -0.000076000000000,     0.000037015000000,    -0.000000000000000 ]
    - [    -0.000000000000000,    -0.000000000000000,    -0.000911485000000 ]
  - # (1, 31)
    - [     0.000037015000000,    -0.000076000000000,    -0.000000000000000 ]
    - [    -0.000076000000000,     0.000037015000000,    -0.000000000000000 ]
    - [    -0.000000000000000,    -0.000000000000000,    -0.000911485000000 ]
  - # (1, 32)
    - [     0.000037015000000,     0.000076000000000,    -0.000000000000000 ]